<LesHouchesEvents version="3.0">
<header>
</header>
<init>
 11 -11  1.8250000000E+02  1.8250000000E+02 -1 -1 -1 -1 3 1
  3.2900045346E-01  5.2413101728E-04  1.0000000000E+00 1
<generator version="3.1.0">WHIZARD</generator>
<xsecinfo neve="10" totxsec="3.2900045346E-01" />
<weightinfo name="sqme_prc" />
</init>
<event>
 166 1  1.0000000000E+00  3.6437736286E+02 -1.0000000000E+00  1.1780000000E-01
 11 -9 0 0 0 0  0.0000000000E+00  0.0000000000E+00  1.8250000000E+02  1.8250000000E+02  5.1099700000E-04  0.0000000000E+00  9.0000000000E+00
 -11 -9 0 0 0 0  0.0000000000E+00  0.0000000000E+00 -1.8250000000E+02  1.8250000000E+02  5.1099700000E-04  0.0000000000E+00  9.0000000000E+00
 11 2 1 2 0 0  0.0000000000E+00  0.0000000000E+00  1.8215084691E+02  1.8215084691E+02  5.1099859771E-04  0.0000000000E+00  9.0000000000E+00
 -11 2 1 2 0 0  0.0000000000E+00  0.0000000000E+00 -1.8222652381E+02  1.8222652381E+02  5.1099859771E-04  0.0000000000E+00  9.0000000000E+00
 11 -1 3 0 0 0  0.0000000000E+00  0.0000000000E+00  1.8215084691E+02  1.8215084691E+02  5.1099700000E-04  0.0000000000E+00  9.0000000000E+00
 -11 -1 4 0 0 0  0.0000000000E+00  0.0000000000E+00 -1.8222652381E+02  1.8222652381E+02  5.1099700000E-04  0.0000000000E+00  9.0000000000E+00
 22 1 3 0 0 0  0.0000000000E+00  0.0000000000E+00  5.1067672188E-13  5.1067672188E-13  0.0000000000E+00  0.0000000000E+00  9.0000000000E+00
 22 1 4 0 0 0  0.0000000000E+00  0.0000000000E+00 -6.8735199884E-10  6.8735199884E-10  0.0000000000E+00  0.0000000000E+00  9.0000000000E+00
 6 2 5 6 501 0  1.6834164108E+01  1.0005089463E+01 -5.3382143377E+01  1.8219976435E+02  1.7310000000E+02  0.0000000000E+00  9.0000000000E+00
 -6 2 5 6 0 501 -1.6834164108E+01 -1.0005089463E+01  5.3306466475E+01  1.8217760637E+02  1.7310000000E+02  0.0000000000E+00  9.0000000000E+00
 24 2 9 0 0 0  4.9242465046E+00  4.4623341797E+00  3.8600484708E+01  8.9159922650E+01  8.0095778649E+01  0.0000000000E+00  9.0000000000E+00
 5 2 9 0 1000 0  1.1909917603E+01  5.5427552833E+00 -9.1982628085E+01  9.3039841696E+01  4.8000000000E+00  0.0000000000E+00  9.0000000000E+00
 -3 2 11 0 1001 1000 -2.2698528195E+01  2.9040357333E+01  3.4221240147E+01  5.0298198909E+01  5.0000000000E-01  0.0000000000E+00  9.0000000000E+00
 4 2 11 0 1002 1001  2.7704482371E+01 -2.4642395299E+01  1.3317909939E-01  3.7108674541E+01  1.5000000000E+00  0.0000000000E+00  9.0000000000E+00
 -24 2 10 0 0 0  4.2271608699E+01  6.9920156532E+00  7.2403652280E+01  1.1760101257E+02  8.2170141230E+01  0.0000000000E+00  9.0000000000E+00
 -5 2 10 0 1003 1002 -5.9105772807E+01 -1.6997105116E+01 -1.9097185805E+01  6.4576593802E+01  4.8000000000E+00  0.0000000000E+00  9.0000000000E+00
 13 2 15 0 0 0 -8.2250167374E+00  3.4139416199E+01  2.3594494958E+01  4.2306760631E+01  1.0566000001E-01  0.0000000000E+00  9.0000000000E+00
 -14 2 15 0 0 0  5.0496625437E+01 -2.7147400546E+01  4.8809157322E+01  7.5294251941E+01  2.1324805999E-06  0.0000000000E+00  9.0000000000E+00
 13 1 17 0 0 0 -8.2250167374E+00  3.4139416199E+01  2.3594494958E+01  4.2306760631E+01  1.0566000000E-01  0.0000000000E+00  9.0000000000E+00
 -14 1 18 0 0 0  5.0496625437E+01 -2.7147400546E+01  4.8809157322E+01  7.5294251941E+01  1.3486991523E-06  0.0000000000E+00  9.0000000000E+00
 5 2 12 0 1004 1003  1.4325441783E+01  1.2300596621E+01 -8.1350249830E+01  8.3650619286E+01  4.8000000000E+00  0.0000000000E+00  9.0000000000E+00
 21 2 12 0 1005 1004  2.8275386862E-01  9.5261371023E-01 -7.4663990103E-01  1.2429375579E+00 -2.1073424255E-08  0.0000000000E+00  9.0000000000E+00
 21 2 12 0 1006 1005 -2.7799857193E+00 -7.6460829024E+00 -5.6396728919E+00  9.8993340522E+00  1.6858739404E-07  0.0000000000E+00  9.0000000000E+00
 -5 2 16 0 0 1006 -5.9105772807E+01 -1.6997105116E+01 -1.9097185805E+01  6.4576593802E+01  4.8000000000E+00  0.0000000000E+00  9.0000000000E+00
 -3 2 13 0 0 1007 -2.1958082138E+01  2.8093063138E+01  3.3105021397E+01  4.8657681915E+01  5.0000000000E-01  0.0000000000E+00  9.0000000000E+00
 21 2 14 0 1007 1008  3.4409344887E-01  7.0974377996E-01  1.5528999965E+00  1.7417333131E+00  2.9802322388E-08  0.0000000000E+00  9.0000000000E+00
 21 2 14 0 1008 1009  9.2322557647E+00 -1.0562514007E+01  2.8546370629E+00  1.4316081916E+01  1.6858739404E-07  0.0000000000E+00  9.0000000000E+00
 21 2 14 0 1009 1010  9.3039652078E+00 -6.2101581404E+00 -2.4473952504E+00  1.1450745663E+01  2.3841857910E-07  0.0000000000E+00  9.0000000000E+00
 4 2 14 0 1010 0  8.0837218919E+00 -7.6321727363E+00 -7.1074395949E-01  1.1240630644E+01  1.5000000000E+00  0.0000000000E+00  9.0000000000E+00
 92 2 21 24 0 0 -4.7277562875E+01 -1.1389977687E+01 -1.0683374843E+02  1.5936948470E+02  1.0779741790E+02  0.0000000000E+00  9.0000000000E+00
 -10513 2 30 0 0 0  1.2832752206E+01  1.1144732846E+01 -7.1580915309E+01  7.3792418192E+01  5.7104243995E+00  0.0000000000E+00  9.0000000000E+00
 -213 2 30 0 0 0  1.6243273278E+00  1.4991262716E+00 -7.1767451320E+00  7.5563636317E+00  8.4091723689E-01  0.0000000000E+00  9.0000000000E+00
 223 2 30 0 0 0 -3.8455486768E-01 -3.0844226514E-01 -2.1043923970E+00  2.2975801922E+00  7.7935120560E-01  0.0000000000E+00  9.0000000000E+00
 223 2 30 0 0 0 -3.0892019309E-01 -8.2106322202E-01 -1.2113866748E+00  1.6921500832E+00  7.9141501606E-01  0.0000000000E+00  9.0000000000E+00
 211 1 30 0 0 0  6.1303467693E-01  7.9647751260E-02 -7.3977974655E-01  9.7411967319E-01  1.3957000000E-01  0.0000000000E+00  9.0000000000E+00
 225 2 30 0 0 0 -1.0404345094E+00 -2.4400645977E+00 -1.8119156561E+00  3.3978139635E+00  1.1071053139E+00  0.0000000000E+00  9.0000000000E+00
 -10213 2 30 0 0 0 -8.6870843159E-01 -2.2873021580E+00 -2.1738188342E+00  3.4754986569E+00  1.1692720339E+00  0.0000000000E+00  9.0000000000E+00
 223 2 30 0 0 0 -1.4905897610E+00 -1.0092449165E+00 -1.0120514721E+00  2.2091043196E+00  7.8451295422E-01  0.0000000000E+00  9.0000000000E+00
 211 1 30 0 0 0 -7.6509151639E-01 -6.1541631614E-01 -4.2154665090E-01  1.0776287090E+00  1.3957000000E-01  0.0000000000E+00  9.0000000000E+00
 513 2 30 0 0 0 -5.7489377807E+01 -1.6631951081E+01 -1.8601196555E+01  6.2896807277E+01  5.3248000000E+00  0.0000000000E+00  9.0000000000E+00
 92 2 25 29 0 0  5.0059541757E+00  4.3979620340E+00  3.4354419246E+01  8.7406873450E+01  8.0095778649E+01  0.0000000000E+00  9.0000000000E+00
 311 2 41 0 0 0 -2.6097680397E+00  3.6396237768E+00  3.9249809788E+00  5.9758599022E+00  4.9767000000E-01  0.0000000000E+00  9.0000000000E+00
 213 2 41 0 0 0 -6.4681955651E+00  7.2869088731E+00  9.3657425076E+00  1.3539411477E+01  8.1359426411E-01  0.0000000000E+00  9.0000000000E+00
 -323 2 41 0 0 0 -7.6162259710E+00  1.0833680963E+01  1.2328251525E+01  1.8115495358E+01  8.9991396816E-01  0.0000000000E+00  9.0000000000E+00
 20313 2 41 0 0 0 -3.3406437212E+00  4.0346016647E+00  5.1843576141E+00  7.4728384784E+00  1.2360582470E+00  0.0000000000E+00  9.0000000000E+00
 -311 2 41 0 0 0 -1.7521627664E+00  2.4386432494E+00  2.9602460845E+00  4.2459142204E+00  4.9767000000E-01  0.0000000000E+00  9.0000000000E+00
 321 1 41 0 0 0  1.7045175308E-01 -2.4132576856E-01  7.4798450015E-01  9.4361734785E-01  4.9360000000E-01  0.0000000000E+00  9.0000000000E+00
 -211 1 41 0 0 0  1.3337973676E+00 -1.3185321126E+00  2.5411708113E-01  1.8977875607E+00  1.3957000000E-01  0.0000000000E+00  9.0000000000E+00
 -1114 2 41 0 0 0  1.9500077846E+00 -2.6028011915E+00  4.7062552345E-01  3.5259458755E+00  1.2781633428E+00  0.0000000000E+00  9.0000000000E+00
 20113 2 41 0 0 0  2.0455788721E+00 -8.9363346890E-01  5.0323073147E-01  2.4994638550E+00  1.0055370178E+00  0.0000000000E+00  9.0000000000E+00
 1114 2 41 0 0 0  4.3052426646E+00 -4.9092855327E+00  1.0410083402E+00  6.7154919550E+00  1.1738547570E+00  0.0000000000E+00  9.0000000000E+00
 10211 2 41 0 0 0  4.5612411637E+00 -2.6902862856E+00 -4.2784576175E-01  5.3950779563E+00  9.3875071595E-01  0.0000000000E+00  9.0000000000E+00
 -321 1 41 0 0 0  1.1314806536E+00 -1.4316049897E+00 -3.3385064845E-01  1.9195933245E+00  4.9360000000E-01  0.0000000000E+00  9.0000000000E+00
 433 2 41 0 0 0  1.1295149980E+01 -9.7480271434E+00 -1.6644292305E+00  1.5160376139E+01  2.1124000000E+00  0.0000000000E+00  9.0000000000E+00
 -523 2 31 0 0 0  1.2095411055E+01  1.0756245690E+01 -6.9162663464E+01  7.1230774967E+01  5.3248000000E+00  0.0000000000E+00  9.0000000000E+00
 211 1 31 0 0 0  7.3734115083E-01  3.8848715614E-01 -2.4182518444E+00  2.5616432248E+00  1.3957000000E-01  0.0000000000E+00  9.0000000000E+00
 -211 1 32 0 0 0  1.4806520278E+00  1.5368447601E+00 -6.1791102636E+00  6.5387388446E+00  1.3957000000E-01  0.0000000000E+00  9.0000000000E+00
 111 2 32 0 0 0  1.4367529999E-01 -3.7718488525E-02 -9.9763486842E-01  1.0176247871E+00  1.3498000000E-01  2.9186755404E-06  9.0000000000E+00
 22 1 33 0 0 0  8.6434561560E-02 -2.8555526882E-01 -1.4466390466E+00  1.4770840451E+00 -4.2146848511E-08  0.0000000000E+00  9.0000000000E+00
 111 2 33 0 0 0 -4.7098942924E-01 -2.2886996319E-02 -6.5775335040E-01  8.2049614711E-01  1.3498000000E-01  1.2781406898E-06  9.0000000000E+00
 211 1 34 0 0 0 -2.4270800173E-01 -3.7438630117E-01 -6.6350220349E-01  8.1165709234E-01  1.3957000000E-01  0.0000000000E+00  9.0000000000E+00
 -211 1 34 0 0 0 -2.4045513058E-01 -2.8157157305E-01 -2.2161000572E-01  4.5353279937E-01  1.3957000000E-01  0.0000000000E+00  9.0000000000E+00
 111 2 34 0 0 0  1.7424293923E-01 -1.6510534780E-01 -3.2627446564E-01  4.2696019143E-01  1.3498000000E-01  1.0889745988E-05  9.0000000000E+00
 -211 1 36 0 0 0 -3.4726212567E-01 -1.7855805225E+00 -7.7444224687E-01  1.9819508987E+00  1.3957000000E-01  0.0000000000E+00  9.0000000000E+00
 211 1 36 0 0 0 -6.9317238377E-01 -6.5448407517E-01 -1.0374734092E+00  1.4158630647E+00  1.3957000000E-01  0.0000000000E+00  9.0000000000E+00
 223 2 37 0 0 0 -6.1554626409E-01 -1.6999043572E+00 -1.9738076150E+00  2.7909465902E+00  7.9050258779E-01  0.0000000000E+00  9.0000000000E+00
 -211 1 37 0 0 0 -2.5316216750E-01 -5.8739780072E-01 -2.0001121925E-01  6.8455206674E-01  1.3957000000E-01  0.0000000000E+00  9.0000000000E+00
 -211 1 38 0 0 0 -7.0622518813E-01 -4.8069605506E-01 -5.3221808740E-01  1.0161489021E+00  1.3957000000E-01  0.0000000000E+00  9.0000000000E+00
 211 1 38 0 0 0 -7.6998500094E-02 -2.8723980686E-01 -1.9369781396E-01  3.8135823538E-01  1.3957000000E-01  0.0000000000E+00  9.0000000000E+00
 111 2 38 0 0 0 -7.0736607281E-01 -2.4130905459E-01 -2.8613557075E-01  8.1159718213E-01  1.3498000000E-01  1.9870680434E-05  9.0000000000E+00
 511 2 40 0 0 0 -5.6764231791E+01 -1.6453578147E+01 -1.8341885250E+01  6.2106303640E+01  5.2792000000E+00  1.9960258974E-02  9.0000000000E+00
 22 1 40 0 0 0 -7.2514601567E-01 -1.7837293407E-01 -2.5931130539E-01  7.9050363741E-01  2.1073424255E-08  0.0000000000E+00  9.0000000000E+00
 130 1 42 0 0 0 -2.6097680397E+00  3.6396237768E+00  3.9249809788E+00  5.9758599022E+00  4.9767000000E-01  0.0000000000E+00  9.0000000000E+00
 211 1 43 0 0 0 -7.7230889343E-01  5.7318558380E-01  9.5600167416E-01  1.3632394237E+00  1.3957000000E-01  0.0000000000E+00  9.0000000000E+00
 111 2 43 0 0 0 -5.6958866717E+00  6.7137232893E+00  8.4097408335E+00  1.2176172053E+01  1.3498000000E-01  1.5291673647E-05  9.0000000000E+00
 -311 2 44 0 0 0 -2.4210923999E+00  3.4832894518E+00  4.0218357956E+00  5.8666713228E+00  4.9767000000E-01  0.0000000000E+00  9.0000000000E+00
 -211 1 44 0 0 0 -5.1951335711E+00  7.3503915115E+00  8.3064157298E+00  1.2248824036E+01  1.3957000000E-01  0.0000000000E+00  9.0000000000E+00
 323 2 45 0 0 0 -3.1180503131E+00  3.7095092766E+00  4.5112176520E+00  6.6804811856E+00  8.9165427106E-01  0.0000000000E+00  9.0000000000E+00
 -211 1 45 0 0 0 -2.2259340803E-01  3.2509238807E-01  6.7313996205E-01  7.9235729282E-01  1.3957000000E-01  0.0000000000E+00  9.0000000000E+00
 130 1 46 0 0 0 -1.7521627664E+00  2.4386432494E+00  2.9602460845E+00  4.2459142204E+00  4.9767000000E-01  0.0000000000E+00  9.0000000000E+00
 -2112 1 49 0 0 0  1.0782530842E+00 -1.6834630698E+00  1.6433886013E-01  2.2150568089E+00  9.3957000000E-01  0.0000000000E+00  9.0000000000E+00
 211 1 49 0 0 0  8.7175470039E-01 -9.1933812177E-01  3.0628666332E-01  1.3108890666E+00  1.3957000000E-01  0.0000000000E+00  9.0000000000E+00
 -213 2 50 0 0 0  1.3073083270E+00 -6.5733015957E-01  3.0379847683E-01  1.6869765252E+00  7.8259713883E-01  0.0000000000E+00  9.0000000000E+00
 211 1 50 0 0 0  7.3827054516E-01 -2.3630330934E-01  1.9943225465E-01  8.1248732971E-01  1.3957000000E-01  0.0000000000E+00  9.0000000000E+00
 2112 1 51 0 0 0  2.8719984670E+00 -3.2969214803E+00  6.7278092567E-01  4.5225537477E+00  9.3957000000E-01  0.0000000000E+00  9.0000000000E+00
 -211 1 51 0 0 0  1.4332441975E+00 -1.6123640524E+00  3.6822741452E-01  2.1929382073E+00  1.3957000000E-01  0.0000000000E+00  9.0000000000E+00
 221 2 52 0 0 0  3.7745734653E+00 -2.2251212277E+00 -1.0864179929E-01  4.4170209266E+00  5.4745000000E-01  0.0000000000E+00  9.0000000000E+00
 211 1 52 0 0 0  7.8666769842E-01 -4.6516505788E-01 -3.1920396246E-01  9.7805702971E-01  1.3957000000E-01  0.0000000000E+00  9.0000000000E+00
 431 2 54 0 0 0  1.0920389968E+01 -9.2988810206E+00 -1.6836038292E+00  1.4575102723E+01  1.9685000000E+00  1.5027182275E-01  9.0000000000E+00
 22 1 54 0 0 0  3.7476001173E-01 -4.4914612280E-01  1.9174598656E-02  5.8527341581E-01 -1.2904784140E-08  0.0000000000E+00  9.0000000000E+00
 -521 2 55 0 0 0  1.1971268579E+01  1.0634570695E+01 -6.8253042778E+01  7.0304694003E+01  5.2789000000E+00  4.5389046427E-01  9.0000000000E+00
 22 1 55 0 0 0  1.2414247676E-01  1.2167499534E-01 -9.0962068638E-01  9.2608096413E-01 -2.1073424255E-08  0.0000000000E+00  9.0000000000E+00
 22 1 58 0 0 0  2.0952261684E-02  3.6830478373E-02 -4.3104890433E-01  4.3312658581E-01  0.0000000000E+00  0.0000000000E+00  9.0000000000E+00
 22 1 58 0 0 0  1.2272303831E-01 -7.4548966898E-02 -5.6658596408E-01  5.8449820127E-01 -7.4505805969E-09  0.0000000000E+00  9.0000000000E+00
 22 1 60 0 0 0 -2.9566611794E-01  5.1045533268E-02 -3.9193977003E-01  4.9359992210E-01 -1.3938759963E-08  0.0000000000E+00  9.0000000000E+00
 22 1 60 0 0 0 -1.7532331130E-01 -7.3932529587E-02 -2.6581358037E-01  3.2689622501E-01 -9.1250603750E-09  0.0000000000E+00  9.0000000000E+00
 22 1 63 0 0 0 -2.0456191560E-04 -4.8836114016E-02 -1.3933074305E-02  5.0785218690E-02  6.5854450798E-10  0.0000000000E+00  9.0000000000E+00
 22 1 63 0 0 0  1.7444750114E-01 -1.1626923378E-01 -3.1234139133E-01  3.7617497274E-01  5.2683560639E-09  0.0000000000E+00  9.0000000000E+00
 -211 1 66 0 0 0 -3.2218478999E-01 -8.6055869583E-01 -1.3052171828E+00  1.6023220610E+00  1.3957000000E-01  0.0000000000E+00  9.0000000000E+00
 211 1 66 0 0 0 -2.1855044428E-01 -2.1528472049E-01 -2.7367129343E-01  4.3415155110E-01  1.3957000000E-01  0.0000000000E+00  9.0000000000E+00
 111 2 66 0 0 0 -7.4811029810E-02 -6.2406094090E-01 -3.9491913872E-01  7.5447297809E-01  1.3498000000E-01  1.3778956537E-04  9.0000000000E+00
 22 1 70 0 0 0 -4.5008358031E-01 -1.2738942549E-01 -1.1299234080E-01  4.8121779276E-01 -5.2683560639E-09  0.0000000000E+00  9.0000000000E+00
 22 1 70 0 0 0 -2.5728249251E-01 -1.1391962910E-01 -1.7314322995E-01  3.3037938937E-01  0.0000000000E+00  0.0000000000E+00  9.0000000000E+00
 16 1 71 0 0 0 -1.8162283057E+01 -5.1919824891E+00 -6.7339287578E+00  2.0054201668E+01  3.3717478809E-07  0.0000000000E+00  9.0000000000E+00
 -15 2 71 0 0 0 -2.2620264049E+01 -6.2174529221E+00 -7.2831512647E+00  2.4627933081E+01  1.7770000000E+00  4.4541977793E-02  9.0000000000E+00
 -413 2 71 0 0 0 -1.5981684684E+01 -5.0441427356E+00 -4.3248052274E+00  1.7424168891E+01  2.0100000000E+00  0.0000000000E+00  9.0000000000E+00
 22 1 75 0 0 0 -1.7329219372E+00  2.0813633112E+00  2.5083603409E+00  3.6914716948E+00  5.9604644775E-08  0.0000000000E+00  9.0000000000E+00
 22 1 75 0 0 0 -3.9629647345E+00  4.6323599781E+00  5.9013804926E+00  8.4847003584E+00 -2.0647654624E-07  0.0000000000E+00  9.0000000000E+00
 130 1 76 0 0 0 -2.4210923999E+00  3.4832894518E+00  4.0218357956E+00  5.8666713228E+00  4.9767000000E-01  0.0000000000E+00  9.0000000000E+00
 311 2 78 0 0 0 -1.1491902797E+00  1.2468399704E+00  1.7497423242E+00  2.4868698882E+00  4.9767000000E-01  0.0000000000E+00  9.0000000000E+00
 211 1 78 0 0 0 -1.9688600335E+00  2.4626693062E+00  2.7614753278E+00  4.1936112974E+00  1.3957000000E-01  0.0000000000E+00  9.0000000000E+00
 -211 1 83 0 0 0  2.1721292642E-01 -4.8190440446E-01  1.1629081981E-01  5.5894243900E-01  1.3957000000E-01  0.0000000000E+00  9.0000000000E+00
 111 2 83 0 0 0  1.0900954006E+00 -1.7542575511E-01  1.8750765701E-01  1.1280340862E+00  1.3498000000E-01  2.2748397969E-05  9.0000000000E+00
 -211 1 87 0 0 0  4.7807496087E-01 -3.6014365052E-01 -5.4027573901E-02  6.1697478138E-01  1.3957000000E-01  0.0000000000E+00  9.0000000000E+00
 211 1 87 0 0 0  2.2920354906E+00 -1.3037848139E+00 -6.8083045606E-02  2.6414762194E+00  1.3957000000E-01  0.0000000000E+00  9.0000000000E+00
 111 2 87 0 0 0  1.0044630138E+00 -5.6119276329E-01  1.3468820212E-02  1.1585699258E+00  1.3498000000E-01  4.0686647109E-05  9.0000000000E+00
 213 2 89 0 0 0  4.5688085405E+00 -4.0533690501E+00 -7.3970056405E-01  6.2121663642E+00  8.6025686691E-01  0.0000000000E+00  9.0000000000E+00
 111 2 89 0 0 0  3.7222728176E+00 -3.3330049097E+00 -8.0746326444E-01  5.0630478154E+00  1.3498000000E-01  6.3137960663E-06  9.0000000000E+00
 221 2 89 0 0 0  2.6293086101E+00 -1.9125070609E+00 -1.3644000070E-01  3.2998885437E+00  5.4745000000E-01  0.0000000000E+00  9.0000000000E+00
 -12 1 91 0 0 0  1.1776483105E-01  9.2977682593E-01 -8.0007576705E+00  8.0554625444E+00  1.1920928955E-07  0.0000000000E+00  9.0000000000E+00
 11 1 91 0 0 0  5.5101675215E+00  4.0211160634E+00 -2.3531799155E+01  2.4500548815E+01  5.1000002284E-04  0.0000000000E+00  9.0000000000E+00
 423 2 91 0 0 0  6.3433362260E+00  5.6836778055E+00 -3.6720485952E+01  3.7748682644E+01  2.0067000000E+00  0.0000000000E+00  9.0000000000E+00
 22 1 101 0 0 0  9.2211895602E-03 -2.0557296332E-01 -6.7671458576E-02  2.1662109752E-01  0.0000000000E+00  0.0000000000E+00  9.0000000000E+00
 22 1 101 0 0 0 -8.4032219370E-02 -4.1848797759E-01 -3.2724768014E-01  5.3785188057E-01  1.0536712128E-08  0.0000000000E+00  9.0000000000E+00
 -16 1 105 0 0 0 -1.0710245368E+00 -2.9613492209E-01 -4.9472031068E-01  1.2163624609E+00  2.5809568280E-08  0.0000000000E+00  9.0000000000E+00
 213 2 105 0 0 0 -1.7394765988E+01 -4.8759785239E+00 -5.8487270303E+00  1.9005286523E+01  8.0016098320E-01  0.0000000000E+00  9.0000000000E+00
 111 2 105 0 0 0 -1.8754492122E+00 -6.1503641323E-01 -5.1907876936E-01  2.0452975105E+00  1.3498000000E-01  1.5483446990E-05  9.0000000000E+00
 111 2 105 0 0 0 -2.2790243122E+00 -4.3030306289E-01 -4.2062515434E-01  2.3609865866E+00  1.3498000000E-01  1.3268954143E-05  9.0000000000E+00
 -421 2 106 0 0 0 -1.4826801149E+01 -4.6401722507E+00 -4.0218794102E+00  1.6156023801E+01  1.8645000000E+00  6.2959583146E-03  9.0000000000E+00
 -211 1 106 0 0 0 -1.1548835357E+00 -4.0397048490E-01 -3.0292581722E-01  1.2681450900E+00  1.3957000000E-01  0.0000000000E+00  9.0000000000E+00
 130 1 110 0 0 0 -1.1491902797E+00  1.2468399704E+00  1.7497423242E+00  2.4868698882E+00  4.9767000000E-01  0.0000000000E+00  9.0000000000E+00
 22 1 113 0 0 0  9.8718013226E-01 -1.9695301684E-01  1.5919155593E-01  1.0191452575E+00  2.5809568280E-08  0.0000000000E+00  9.0000000000E+00
 22 1 113 0 0 0  1.0291526830E-01  2.1527261734E-02  2.8316101082E-02  1.0888882875E-01  3.7252902985E-09  0.0000000000E+00  9.0000000000E+00
 22 1 116 0 0 0  8.0128055829E-02 -5.4766015370E-02  3.8205476676E-02  1.0430474686E-01 -1.8626451492E-09  0.0000000000E+00  9.0000000000E+00
 22 1 116 0 0 0  9.2433495792E-01 -5.0642674792E-01 -2.4736656463E-02  1.0542651790E+00  1.4901161194E-08  0.0000000000E+00  9.0000000000E+00
 211 1 117 0 0 0  1.3552561662E+00 -8.6625466126E-01 -4.4440271615E-01  1.6745417203E+00  1.3957000000E-01  0.0000000000E+00  9.0000000000E+00
 111 2 117 0 0 0  3.2135523743E+00 -3.1871143888E+00 -2.9529784790E-01  4.5376246439E+00  1.3498000000E-01  5.9518883259E-06  9.0000000000E+00
 22 1 118 0 0 0  3.1633352048E+00 -2.7715835273E+00 -6.9888193134E-01  4.2634259488E+00  0.0000000000E+00  0.0000000000E+00  9.0000000000E+00
 22 1 118 0 0 0  5.5893761286E-01 -5.6142138237E-01 -1.0858133310E-01  7.9962186660E-01 -1.4901161194E-08  0.0000000000E+00  9.0000000000E+00
 22 1 119 0 0 0  9.5745343344E-01 -4.8062487436E-01  1.4369980858E-01  1.0809102562E+00  2.5809568280E-08  0.0000000000E+00  9.0000000000E+00
 22 1 119 0 0 0  1.6718551766E+00 -1.4318821865E+00 -2.8013980929E-01  2.2189782875E+00  2.9802322388E-08  0.0000000000E+00  9.0000000000E+00
 421 2 122 0 0 0  5.8335806028E+00  5.2215520086E+00 -3.3609530814E+01  3.4559690245E+01  1.8645000000E+00  8.4651211601E-04  9.0000000000E+00
 111 2 122 0 0 0  5.0975562320E-01  4.6212579687E-01 -3.1109551386E+00  3.1889923993E+00  1.3498000000E-01  8.3472654278E-07  9.0000000000E+00
 211 1 126 0 0 0 -3.8987410560E+00 -8.2565482841E-01 -1.4556498488E+00  4.2450305046E+00  1.3957000000E-01  0.0000000000E+00  9.0000000000E+00
 111 2 126 0 0 0 -1.3496024932E+01 -4.0503236955E+00 -4.3930771815E+00  1.4760256018E+01  1.3498000000E-01  3.8532208642E-05  9.0000000000E+00
 22 1 127 0 0 0 -5.3713910287E-01 -2.2800901225E-01 -1.9156130034E-01  6.1416793899E-01  1.6660004687E-08  0.0000000000E+00  9.0000000000E+00
 22 1 127 0 0 0 -1.3383101093E+00 -3.8702740097E-01 -3.2751746902E-01  1.4311295715E+00  3.6500241500E-08  0.0000000000E+00  9.0000000000E+00
 22 1 128 0 0 0 -2.2126511753E+00 -4.2149012291E-01 -3.8487281706E-01  2.2850834192E+00  2.9802322388E-08  0.0000000000E+00  9.0000000000E+00
 22 1 128 0 0 0 -6.6373136859E-02 -8.8129399805E-03 -3.5752337284E-02  7.5903167450E-02  0.0000000000E+00  0.0000000000E+00  9.0000000000E+00
 11 1 129 0 0 0 -1.3559953506E+00 -2.1620058444E-01 -5.4968781643E-01  1.4790615400E+00  5.1000000064E-04  0.0000000000E+00  9.0000000000E+00
 -12 1 129 0 0 0 -5.9994328580E+00 -1.6880004898E+00 -1.9275634927E+00  6.5236524501E+00  1.6858739404E-07  0.0000000000E+00  9.0000000000E+00
 323 2 129 0 0 0 -7.4713729401E+00 -2.7359711764E+00 -1.5446281011E+00  8.1533098109E+00  8.8523048618E-01  0.0000000000E+00  9.0000000000E+00
 22 1 137 0 0 0  2.2033520636E+00 -2.1183904455E+00 -1.5750281791E-01  3.0605792807E+00  9.4243218308E-08  0.0000000000E+00  9.0000000000E+00
 22 1 137 0 0 0  1.0102003107E+00 -1.0687239433E+00 -1.3779502999E-01  1.4770453633E+00  2.9802322388E-08  0.0000000000E+00  9.0000000000E+00
 211 1 142 0 0 0  1.1343977843E+00  4.9416891762E-01 -5.9712364056E+00  6.0996889469E+00  1.3957000000E-01  0.0000000000E+00  9.0000000000E+00
 211 1 142 0 0 0  9.3092041669E-01  8.8189418871E-01 -3.6970528006E+00  3.9156135378E+00  1.3957000000E-01  0.0000000000E+00  9.0000000000E+00
 -211 1 142 0 0 0  1.7743851121E+00  1.9353689802E+00 -1.2544323834E+01  1.2816927707E+01  1.3957000000E-01  0.0000000000E+00  9.0000000000E+00
 -211 1 142 0 0 0  1.9938772897E+00  1.9101199221E+00 -1.1396917773E+01  1.1727460052E+01  1.3957000000E-01  0.0000000000E+00  9.0000000000E+00
 22 1 143 0 0 0  3.9369474703E-01  4.0483210125E-01 -2.6880064610E+00  2.7466822384E+00 -5.9604644775E-08  0.0000000000E+00  9.0000000000E+00
 22 1 143 0 0 0  1.1606087617E-01  5.7293695622E-02 -4.2294867761E-01  4.4231016089E-01 -5.2683560639E-09  0.0000000000E+00  9.0000000000E+00
 22 1 145 0 0 0 -6.4085264090E+00 -1.9251003989E+00 -2.0156254929E+00  6.9884167312E+00 -1.6858739404E-07  0.0000000000E+00  9.0000000000E+00
 22 1 145 0 0 0 -7.0874985229E+00 -2.1252232966E+00 -2.3774516886E+00  7.7718392871E+00 -2.3841857910E-07  0.0000000000E+00  9.0000000000E+00
 321 1 152 0 0 0 -7.0129674734E+00 -2.6284515869E+00 -1.3489734429E+00  7.6258665631E+00  4.9360000000E-01  0.0000000000E+00  9.0000000000E+00
 111 2 152 0 0 0 -4.5840546662E-01 -1.0751958947E-01 -1.9565465821E-01  5.2744324778E-01  1.3498000000E-01  1.9930234689E-04  9.0000000000E+00
 22 1 164 0 0 0 -3.0948063286E-01 -6.7045709577E-03 -1.1319553388E-01  3.2960042821E-01  9.8561916913E-09  0.0000000000E+00  9.0000000000E+00
 22 1 164 0 0 0 -1.4892483376E-01 -1.0081501852E-01 -8.2459124329E-02  1.9784281957E-01  6.9693799816E-09  0.0000000000E+00  9.0000000000E+00
<weights>2.4208775208E+20</weights>
</event>
<event>
 295 1  1.0000000000E+00  3.6593733307E+02 -1.0000000000E+00  1.1780000000E-01
 11 -9 0 0 0 0  0.0000000000E+00  0.0000000000E+00  1.8250000000E+02  1.8250000000E+02  5.1099700000E-04  0.0000000000E+00  9.0000000000E+00
 -11 -9 0 0 0 0  0.0000000000E+00  0.0000000000E+00 -1.8250000000E+02  1.8250000000E+02  5.1099700000E-04  0.0000000000E+00  9.0000000000E+00
 11 2 1 2 0 0  0.0000000000E+00  0.0000000000E+00  1.8328678076E+02  1.8328678076E+02  5.1099859771E-04  0.0000000000E+00  9.0000000000E+00
 -11 2 1 2 0 0  0.0000000000E+00  0.0000000000E+00 -1.8268231530E+02  1.8268231530E+02  5.1099147830E-04  0.0000000000E+00  9.0000000000E+00
 11 -1 3 0 0 0  0.0000000000E+00  0.0000000000E+00  1.8328678076E+02  1.8328678076E+02  5.1099700000E-04  0.0000000000E+00  9.0000000000E+00
 -11 -1 4 0 0 0  0.0000000000E+00  0.0000000000E+00 -1.8265110443E+02  1.8265110443E+02  5.1099700000E-04  0.0000000000E+00  9.0000000000E+00
 22 1 3 0 0 0  0.0000000000E+00  0.0000000000E+00  5.9186892627E-10  5.9186892627E-10  0.0000000000E+00  0.0000000000E+00  9.0000000000E+00
 22 1 4 0 0 0  0.0000000000E+00  0.0000000000E+00 -3.1210869305E-02  3.1210869305E-02  0.0000000000E+00  0.0000000000E+00  9.0000000000E+00
 6 2 5 6 501 0  4.0273705759E+01 -3.5975416810E+01 -2.4130530846E+01  1.8292647296E+02  1.7310000000E+02  0.0000000000E+00  9.0000000000E+00
 -6 2 5 6 0 501 -4.0273705759E+01  3.5975416810E+01  2.4766207178E+01  1.8301141223E+02  1.7310000000E+02  0.0000000000E+00  9.0000000000E+00
 24 2 9 0 0 0 -1.5829539245E+01 -6.2253028360E+01 -5.1944828105E+01  1.1484738586E+02  7.9784979904E+01  0.0000000000E+00  9.0000000000E+00
 5 2 9 0 1000 0  5.6103245004E+01  2.6277611550E+01  2.7814297259E+01  6.8079087103E+01  4.8000000000E+00  0.0000000000E+00  9.0000000000E+00
 -3 2 11 0 1001 1000 -8.8320977055E+00 -4.7611833215E+01  1.1143719819E+01  4.9692304268E+01  5.0000000000E-01  0.0000000000E+00  9.0000000000E+00
 4 2 11 0 1002 1001 -6.9751582458E+00 -1.4604270614E+01 -6.3056201394E+01  6.5117371622E+01  1.5000000000E+00  0.0000000000E+00  9.0000000000E+00
 -24 2 10 0 0 0  6.1416149330E+00  7.6367286379E+01 -8.8123476274E+00  1.1275157687E+02  8.2253138261E+01  0.0000000000E+00  9.0000000000E+00
 -5 2 10 0 1003 1002 -4.6415320692E+01 -4.0391869569E+01  3.3578554805E+01  7.0259835362E+01  4.8000000000E+00  0.0000000000E+00  9.0000000000E+00
 3 2 15 0 1004 1003  8.6797169229E+00  8.0292204143E+00  3.2359341732E+01  3.4455520075E+01  5.0000000000E-01  0.0000000000E+00  9.0000000000E+00
 -4 2 15 0 1005 1004 -4.3665021981E+00  6.2928824404E+01 -3.9614068673E+01  7.4502534985E+01  1.5000000000E+00  0.0000000000E+00  9.0000000000E+00
 5 2 12 0 1006 1005  5.2279189712E+01  2.5126844394E+01  2.6515842210E+01  6.3957813239E+01  4.8000000000E+00  0.0000000000E+00  9.0000000000E+00
 21 2 12 0 1007 1006  3.8017719980E+00  1.1138426257E+00  1.2661085191E+00  4.1589838304E+00  8.4293697022E-08  0.0000000000E+00  9.0000000000E+00
 21 2 16 0 1008 1007 -1.8478200454E+00 -1.2044520793E+00  5.1227755950E-01  2.2644142796E+00  2.9802322388E-08  0.0000000000E+00  9.0000000000E+00
 21 2 16 0 1009 1008 -9.1314897593E+00  3.0277849354E+00 -1.4219666684E+00  9.7248946547E+00 -1.6858739404E-07  0.0000000000E+00  9.0000000000E+00
 21 2 16 0 1010 1009  1.3859919085E+00 -1.0912749608E+00 -2.2930768199E-01  1.7788863436E+00  2.1073424255E-08  0.0000000000E+00  9.0000000000E+00
 21 2 16 0 1011 1010 -1.1188400080E+00 -1.6676058816E+00  7.3816097967E-01  2.1395312505E+00  2.9802322388E-08  0.0000000000E+00  9.0000000000E+00
 -5 2 16 0 0 1011 -3.3874762580E+01 -3.4047080022E+01  3.2421769930E+01  5.8145630647E+01  4.8000000000E+00  0.0000000000E+00  9.0000000000E+00
 4 2 14 0 1012 0 -5.2588007812E+00 -1.0266414402E+01 -4.9499972978E+01  5.0848319295E+01  1.5000000000E+00  0.0000000000E+00  9.0000000000E+00
 21 2 14 0 1013 1012 -7.8111492148E-01 -2.5002448120E+00 -4.7248405783E+00  5.4023590339E+00 -1.0323827312E-07  0.0000000000E+00  9.0000000000E+00
 21 2 13 0 1014 1013 -9.0943537593E-01 -3.8480647324E+00  2.3027099030E+00  4.5757128171E+00 -5.9604644775E-08  0.0000000000E+00  9.0000000000E+00
 21 2 13 0 1015 1014 -2.5387444988E+00 -1.4840860143E+01  2.6878414142E+00  1.5294471056E+01  1.6858739404E-07  0.0000000000E+00  9.0000000000E+00
 21 2 13 0 1016 1015 -2.9962499156E+00 -9.1670381182E+00 -2.4845431283E+00  9.9591694419E+00 -1.1920928955E-07  0.0000000000E+00  9.0000000000E+00
 21 2 13 0 1017 1016 -2.1039275345E-01 -4.3203547724E+00 -2.6243101531E-01  4.3334282627E+00  8.4293697022E-08  0.0000000000E+00  9.0000000000E+00
 21 2 13 0 1018 1017  1.5294737408E+00 -1.5489831919E+01 -3.7774814771E+00  1.6016976903E+01  3.3717478809E-07  0.0000000000E+00  9.0000000000E+00
 21 2 13 0 1019 1018 -1.4523243526E+00  1.0713373461E+00 -2.9520798920E-01  1.8287037735E+00  2.9802322388E-08  0.0000000000E+00  9.0000000000E+00
 21 2 13 0 1020 1019 -1.1116405613E+00 -2.3689444081E+00  1.1911000464E+00  2.8751281131E+00  0.0000000000E+00  0.0000000000E+00  9.0000000000E+00
 -3 2 13 0 0 1020 -2.0780265318E+00 -4.8568786892E-01  2.9503442278E+00  3.6754071932E+00  5.0000000000E-01  0.0000000000E+00  9.0000000000E+00
 3 2 17 0 1021 0  1.3368070774E+00  9.5627108629E+00  2.0469027125E+01  2.2637658087E+01  5.0000000000E-01  0.0000000000E+00  9.0000000000E+00
 21 2 17 0 1022 1021  4.9532354208E+00  5.8486268792E-01  5.4812813834E+00  7.4108738419E+00  0.0000000000E+00  0.0000000000E+00  9.0000000000E+00
 21 2 17 0 1023 1022  2.1135004588E+00 -8.7350984060E-01  4.8566263029E+00  5.3681209633E+00  5.9604644775E-08  0.0000000000E+00  9.0000000000E+00
 21 2 18 0 1024 1023  1.6868461644E+00  1.1691894684E+00 -6.8186093690E-01  2.1627270592E+00  4.2146848511E-08  0.0000000000E+00  9.0000000000E+00
 -4 2 18 0 0 1024 -5.7771743966E+00  6.0514791640E+01 -3.7379800816E+01  7.1378675108E+01  1.5000000000E+00  0.0000000000E+00  9.0000000000E+00
 92 2 19 25 0 0  1.1494041226E+01 -8.7419409888E+00  5.9802884848E+01  1.4217015424E+02  1.2816954867E+02  0.0000000000E+00  9.0000000000E+00
 -533 2 41 0 0 0  5.2539934671E+01  2.5374460924E+01  2.6120369139E+01  6.4155420598E+01  5.4163000000E+00  0.0000000000E+00  9.0000000000E+00
 -323 2 41 0 0 0  2.1002642280E+00  1.1747747943E+00  1.2809121267E+00  2.8678009540E+00  8.9013526513E-01  0.0000000000E+00  9.0000000000E+00
 3222 2 41 0 0 0  6.1816761296E-01 -4.9378929383E-01  1.8752539454E-01  1.4407379480E+00  1.1893700000E+00  2.5679677926E+00  9.0000000000E+00
 -3212 2 41 0 0 0 -1.2956009178E+00 -4.2495892278E-01  4.2900658947E-01  1.8615568701E+00  1.1925500000E+00  0.0000000000E+00  9.0000000000E+00
 113 2 41 0 0 0 -3.6589393559E+00  1.3990975288E+00 -8.5970608878E-01  4.0915473498E+00  8.1015680658E-01  0.0000000000E+00  9.0000000000E+00
 -10213 2 41 0 0 0 -1.5808118864E+00 -1.8124438107E-01  4.4040983372E-01  2.1531198596E+00  1.3820812431E+00  0.0000000000E+00  9.0000000000E+00
 321 1 41 0 0 0  1.8846631974E-01  2.7057604334E-01 -2.1815538206E-01  6.3242681761E-01  4.9360000000E-01  0.0000000000E+00  9.0000000000E+00
 10333 2 41 0 0 0 -2.9685244379E+00  3.7944927367E-01 -4.6224591831E-01  3.3361402316E+00  1.4000147379E+00  0.0000000000E+00  9.0000000000E+00
 335 2 41 0 0 0 -1.1013916915E-01 -1.1016201955E+00 -1.4203448471E-02  1.9635327060E+00  1.6215921983E+00  0.0000000000E+00  9.0000000000E+00
 -311 2 41 0 0 0 -2.3259898552E-01 -2.7629125802E-01  6.4102090369E-01  8.8826931456E-01  4.9767000000E-01  0.0000000000E+00  9.0000000000E+00
 -211 1 41 0 0 0 -2.0039316584E+00 -2.2233915314E+00  1.3226183451E+00  3.2753642645E+00  1.3957000000E-01  0.0000000000E+00  9.0000000000E+00
 521 2 41 0 0 0 -3.2102245195E+01 -3.2639003970E+01  3.0935333354E+01  5.5504237330E+01  5.2789000000E+00  6.8610112349E-01  9.0000000000E+00
 92 2 26 35 0 0 -1.5807255951E+01 -6.2216103830E+01 -5.1912481575E+01  1.1480967589E+02  7.9784979904E+01  0.0000000000E+00  9.0000000000E+00
 423 2 54 0 0 0 -4.2854429669E+00 -8.5031579932E+00 -3.9632763762E+01  4.0809943955E+01  2.0067000000E+00  0.0000000000E+00  9.0000000000E+00
 215 2 54 0 0 0 -9.1700992578E-01 -2.8275017663E+00 -1.1845782062E+01  1.2279745783E+01  1.2782528668E+00  0.0000000000E+00  9.0000000000E+00
 311 2 54 0 0 0 -1.2741264620E+00 -1.5113889725E+00 -2.5616834190E+00  3.2737733941E+00  4.9767000000E-01  0.0000000000E+00  9.0000000000E+00
 -323 2 54 0 0 0 -1.6065190286E+00 -9.6938084367E+00  2.3410096023E+00  1.0142559985E+01  9.1671789028E-01  0.0000000000E+00  9.0000000000E+00
 211 1 54 0 0 0 -2.8030417475E-01 -9.1106242158E-01 -7.7341454793E-01  1.2354169394E+00  1.3957000000E-01  0.0000000000E+00  9.0000000000E+00
 -10213 2 54 0 0 0 -6.1692445514E-01 -3.8862774239E+00  1.0449502452E+00  4.2344422530E+00  1.1639725857E+00  0.0000000000E+00  9.0000000000E+00
 3212 2 54 0 0 0 -1.4706750460E+00 -7.7709210743E+00  8.3521755046E-01  8.0417574754E+00  1.1925500000E+00  0.0000000000E+00  9.0000000000E+00
 -3122 2 54 0 0 0 -1.6950537874E+00 -5.0453830167E+00 -6.0745753765E-01  5.4720054504E+00  1.1156800000E+00  3.9945908226E+01  9.0000000000E+00
 111 2 54 0 0 0 -1.7340737158E-01 -6.2822167841E+00 -2.0567806816E+00  6.6139915491E+00  1.3498000000E-01  2.9284808741E-05  9.0000000000E+00
 223 2 54 0 0 0  6.5717004060E-01 -4.7849010508E+00 -4.3967691102E-01  4.9148879982E+00  7.9728145607E-01  0.0000000000E+00  9.0000000000E+00
 321 1 54 0 0 0 -5.5003393737E-01 -3.1085875494E+00 -7.3236710108E-01  3.2780873105E+00  4.9360000000E-01  0.0000000000E+00  9.0000000000E+00
 3322 2 54 0 0 0 -1.8210918736E-01 -2.8002893186E+00 -4.2381375520E-01  3.1278369735E+00  1.3149000000E+00  1.6510069970E+02  9.0000000000E+00
 -3222 2 54 0 0 0  7.3763128381E-01 -2.5197533295E+00 -1.4571642706E+00  3.2297345805E+00  1.1893700000E+00  8.6851928063E+01  9.0000000000E+00
 213 2 54 0 0 0 -6.2238584098E-01 -1.0371652374E+00  1.1525594331E+00  1.8445313771E+00  7.8155415007E-01  0.0000000000E+00  9.0000000000E+00
 -10213 2 54 0 0 0 -1.2244207094E+00  2.7260255381E-01 -4.4182685243E-03  1.6897816916E+00  1.1321768494E+00  0.0000000000E+00  9.0000000000E+00
 211 1 54 0 0 0 -8.3741399155E-01 -1.4643488186E+00  1.8361255495E+00  2.4972818171E+00  1.3957000000E-01  0.0000000000E+00  9.0000000000E+00
 311 2 54 0 0 0 -1.4662303910E+00 -3.4194318973E-01  1.4129783614E+00  2.1238973570E+00  4.9767000000E-01  0.0000000000E+00  9.0000000000E+00
 92 2 36 40 0 0  4.3132147248E+00  7.0958044818E+01 -7.2547269413E+00  1.0895805506E+02  8.2253138261E+01  0.0000000000E+00  9.0000000000E+00
 -10323 2 72 0 0 0  6.6414445937E-01  4.1272114482E+00  8.3988524959E+00  9.4690149432E+00  1.2831829745E+00  0.0000000000E+00  9.0000000000E+00
 323 2 72 0 0 0  6.5713878285E-01  3.3435852356E+00  8.2577231274E+00  8.9838012486E+00  9.5252297447E-01  0.0000000000E+00  9.0000000000E+00
 -313 2 72 0 0 0  9.8528883727E-01  8.3730411654E-01  2.0531338181E+00  2.5889302269E+00  9.0295568463E-01  0.0000000000E+00  9.0000000000E+00
 223 2 72 0 0 0  6.6671815801E-01  1.3657181828E+00  3.6083755963E+00  3.9927492748E+00  7.8228707665E-01  0.0000000000E+00  9.0000000000E+00
 311 2 72 0 0 0  3.1932050508E+00 -6.7331338398E-02  3.2043118236E+00  4.5515252056E+00  4.9767000000E-01  0.0000000000E+00  9.0000000000E+00
 -313 2 72 0 0 0  1.2226009498E+00 -1.8083349660E-01  2.4694570046E+00  2.8961863232E+00  8.7305411361E-01  0.0000000000E+00  9.0000000000E+00
 -213 2 72 0 0 0  4.0834781269E-01  5.4474091188E-01  1.6644107401E+00  2.0467399906E+00  9.7744098552E-01  0.0000000000E+00  9.0000000000E+00
 2212 1 72 0 0 0  7.4446547263E-01 -2.4122247231E-01 -2.0646360256E-01  1.2391105411E+00  9.3827000000E-01  0.0000000000E+00  9.0000000000E+00
 -2212 1 72 0 0 0  6.2764666068E-01  8.7086230576E-01 -3.7624478384E-02  1.4262214697E+00  9.3827000000E-01  0.0000000000E+00  9.0000000000E+00
 211 1 72 0 0 0 -1.9686979304E-01  7.7546251125E-01 -2.8847708482E-01  8.6185766524E-01  1.3957000000E-01  0.0000000000E+00  9.0000000000E+00
 223 2 72 0 0 0  3.1461341465E-01  1.8659292675E+00 -5.2533075630E-01  2.1139186571E+00  7.8230815750E-01  0.0000000000E+00  9.0000000000E+00
 -213 2 72 0 0 0 -1.5839113327E-01  1.5455931336E+00 -1.2760074628E+00  2.1377660008E+00  7.2656902167E-01  0.0000000000E+00  9.0000000000E+00
 215 2 72 0 0 0  2.7847754947E-01  3.3777935770E+00 -1.5581965328E+00  3.9442999599E+00  1.2815953122E+00  0.0000000000E+00  9.0000000000E+00
 111 2 72 0 0 0 -1.5011899297E-01  3.9560517052E-01 -9.3325368350E-01  1.0335478708E+00  1.3498000000E-01  2.4042256832E-05  9.0000000000E+00
 -413 2 72 0 0 0 -4.9440525042E+00  5.2397626265E+01 -3.2085637946E+01  6.1672385682E+01  2.0100000000E+00  0.0000000000E+00  9.0000000000E+00
 -531 2 42 0 0 0  5.1966465390E+01  2.5078287877E+01  2.5877479267E+01  6.3465796802E+01  5.3693000000E+00  8.0880416777E-03  9.0000000000E+00
 22 1 42 0 0 0  5.7346928114E-01  2.9617304675E-01  2.4288987163E-01  6.8962379583E-01 -7.4505805969E-09  0.0000000000E+00  9.0000000000E+00
 -311 2 43 0 0 0  7.8922440921E-01  5.2801329347E-01  3.4430091563E-01  1.1260069962E+00  4.9767000000E-01  0.0000000000E+00  9.0000000000E+00
 -211 1 43 0 0 0  1.3110398188E+00  6.4676150086E-01  9.3661121109E-01  1.7417939577E+00  1.3957000000E-01  0.0000000000E+00  9.0000000000E+00
 2212 1 44 0 0 0  4.1944731107E-01 -2.8276804862E-01 -7.9388686720E-03  1.0659772205E+00  9.3827000000E-01  0.0000000000E+00  9.0000000000E+00
 111 2 44 0 0 0  1.9872030189E-01 -2.1102124520E-01  1.9546426321E-01  3.7476072754E-01  1.3498000000E-01  5.9439260428E-05  9.0000000000E+00
 -3122 2 45 0 0 0 -1.2494610649E+00 -4.3894111588E-01  3.4644977661E-01  1.7659534439E+00  1.1156800000E+00  6.0723710453E+01  9.0000000000E+00
 22 1 45 0 0 0 -4.6139852920E-02  1.3982193098E-02  8.2556812863E-02  9.5603426201E-02 -1.3170890160E-09  0.0000000000E+00  9.0000000000E+00
 211 1 46 0 0 0 -2.6325050275E+00  1.2483546579E+00 -8.7297180610E-01  3.0446726640E+00  1.3957000000E-01  0.0000000000E+00  9.0000000000E+00
 -211 1 46 0 0 0 -1.0264343284E+00  1.5074287098E-01  1.3265717323E-02  1.0468746858E+00  1.3957000000E-01  0.0000000000E+00  9.0000000000E+00
 223 2 47 0 0 0 -3.8159418073E-01 -1.8089362288E-01  2.3355724347E-01  9.2821537045E-01  7.9290489114E-01  0.0000000000E+00  9.0000000000E+00
 -211 1 47 0 0 0 -1.1992177056E+00 -3.5075819089E-04  2.0685259024E-01  1.2249044891E+00  1.3957000000E-01  0.0000000000E+00  9.0000000000E+00
 -313 2 49 0 0 0 -1.8221902532E+00  1.4875532215E-01 -1.9366120597E-01  2.0372503445E+00  8.7771227560E-01  0.0000000000E+00  9.0000000000E+00
 311 2 49 0 0 0 -1.1463341847E+00  2.3069395152E-01 -2.6858471234E-01  1.2988898871E+00  4.9767000000E-01  0.0000000000E+00  9.0000000000E+00
 221 2 50 0 0 0 -2.2807208905E-01  1.3247473123E-01 -2.6746134260E-02  6.0826251768E-01  5.4745000000E-01  0.0000000000E+00  9.0000000000E+00
 221 2 50 0 0 0  1.1793291990E-01 -1.2340949267E+00  1.2542685789E-02  1.3552701883E+00  5.4745000000E-01  0.0000000000E+00  9.0000000000E+00
 130 1 51 0 0 0 -2.3259898552E-01 -2.7629125802E-01  6.4102090369E-01  8.8826931456E-01  4.9767000000E-01  0.0000000000E+00  9.0000000000E+00
 -421 2 53 0 0 0 -9.5458149725E+00 -8.0063669793E+00  9.9374617750E+00  1.6045373242E+01  1.8645000000E+00  2.9395541379E-02  9.0000000000E+00
 213 2 53 0 0 0 -2.2556430222E+01 -2.4632636991E+01  2.0997871579E+01  3.9458864088E+01  7.2937974302E-01  0.0000000000E+00  9.0000000000E+00
 421 2 55 0 0 0 -3.9265726343E+00 -7.8829177630E+00 -3.6626932807E+01  3.7716931638E+01  1.8645000000E+00  1.2031153704E-02  9.0000000000E+00
 111 2 55 0 0 0 -3.5887033264E-01 -6.2024023018E-01 -3.0058309551E+00  3.0930123165E+00  1.3498000000E-01  3.1263129536E-05  9.0000000000E+00
 221 2 56 0 0 0 -3.7776768153E-01 -4.7634685379E-01 -2.8460167811E+00  2.9612713093E+00  5.4745000000E-01  0.0000000000E+00  9.0000000000E+00
 211 1 56 0 0 0 -5.3924224425E-01 -2.3511549125E+00 -8.9997652810E+00  9.3184744737E+00  1.3957000000E-01  0.0000000000E+00  9.0000000000E+00
 130 1 57 0 0 0 -1.2741264620E+00 -1.5113889725E+00 -2.5616834190E+00  3.2737733941E+00  4.9767000000E-01  0.0000000000E+00  9.0000000000E+00
 -311 2 58 0 0 0 -8.1000978497E-01 -6.0919764926E+00  1.2267057940E+00  6.2865551752E+00  4.9767000000E-01  0.0000000000E+00  9.0000000000E+00
 -211 1 58 0 0 0 -7.9650924365E-01 -3.6018319442E+00  1.1143038083E+00  3.8560048096E+00  1.3957000000E-01  0.0000000000E+00  9.0000000000E+00
 223 2 60 0 0 0 -4.0060754292E-01 -2.4020723812E+00  3.6182030997E-01  2.5804156787E+00  7.7278264090E-01  0.0000000000E+00  9.0000000000E+00
 -211 1 60 0 0 0 -2.1631691222E-01 -1.4842050426E+00  6.8312993524E-01  1.6540265743E+00  1.3957000000E-01  0.0000000000E+00  9.0000000000E+00
 3122 2 61 0 0 0 -1.3992593395E+00 -7.5405359877E+00  8.6756246058E-01  7.7983983077E+00  1.1156800000E+00  6.6875362447E+01  9.0000000000E+00
 22 1 61 0 0 0 -7.1415706505E-02 -2.3038508663E-01 -3.2344910121E-02  2.4335916767E-01  2.6341780319E-09  0.0000000000E+00  9.0000000000E+00
 -2112 1 62 0 0 0 -1.3422829876E+00 -4.2212119990E+00 -4.3219446763E-01  4.5486193732E+00  9.3957000000E-01  0.0000000000E+00  9.0000000000E+00
 111 2 62 0 0 0 -3.5277079971E-01 -8.2417101765E-01 -1.7526307002E-01  9.2338607720E-01  1.3498000000E-01  1.3342824562E-04  9.0000000000E+00
 22 1 63 0 0 0  1.5620257367E-02 -1.1549220748E+00 -4.0098544691E-01  1.2226521664E+00  0.0000000000E+00  0.0000000000E+00  9.0000000000E+00
 22 1 63 0 0 0 -1.8902762894E-01 -5.1272947093E+00 -1.6557952347E+00  5.3913393827E+00  1.1920928955E-07  0.0000000000E+00  9.0000000000E+00
 -211 1 64 0 0 0  3.9212935206E-01 -1.7955950424E+00 -1.6067157240E-02  1.8432755962E+00  1.3957000000E-01  0.0000000000E+00  9.0000000000E+00
 211 1 64 0 0 0 -7.6761166873E-02 -1.3973239319E+00 -1.3987810406E-01  1.4133124623E+00  1.3957000000E-01  0.0000000000E+00  9.0000000000E+00
 111 2 64 0 0 0  3.4180185541E-01 -1.5919820766E+00 -2.8373164972E-01  1.6582999397E+00  1.3498000000E-01  5.4117555714E-05  9.0000000000E+00
 3122 2 66 0 0 0 -2.3621169847E-01 -2.6634465964E+00 -3.6869880371E-01  2.9206890298E+00  1.1156800000E+00  9.6881576653E+01  9.0000000000E+00
 111 2 66 0 0 0  5.4102511111E-02 -1.3684272215E-01 -5.5114951493E-02  2.0714794373E-01  1.3498000000E-01  7.4553293253E-06  9.0000000000E+00
 -2212 1 67 0 0 0  5.0949275017E-01 -2.2331424193E+00 -1.1327183167E+00  2.7221148589E+00  9.3827000000E-01  0.0000000000E+00  9.0000000000E+00
 111 2 67 0 0 0  2.2813853364E-01 -2.8661091016E-01 -3.2444595383E-01  5.0761972155E-01  1.3498000000E-01  2.6658331097E-05  9.0000000000E+00
 211 1 68 0 0 0 -5.4680611894E-02 -6.1711301414E-01  2.3120236425E-01  6.7583486125E-01  1.3957000000E-01  0.0000000000E+00  9.0000000000E+00
 111 2 68 0 0 0 -5.6770522909E-01 -4.2005222324E-01  9.2135706886E-01  1.1686965158E+00  1.3498000000E-01  1.0938839880E-05  9.0000000000E+00
 223 2 69 0 0 0 -1.1569456921E+00  2.4393743684E-01 -2.0712118990E-01  1.4329883387E+00  7.8264141455E-01  0.0000000000E+00  9.0000000000E+00
 -211 1 69 0 0 0 -6.7475017213E-02  2.8665116966E-02  2.0270292138E-01  2.5679335294E-01  1.3957000000E-01  0.0000000000E+00  9.0000000000E+00
 310 2 71 0 0 0 -1.4662303910E+00 -3.4194318973E-01  1.4129783614E+00  2.1238973570E+00  4.9767000000E-01  1.8466516586E+02  9.0000000000E+00
 -321 1 73 0 0 0  1.7142790748E-01  1.5914868036E+00  3.1136916986E+00  3.5356660939E+00  4.9360000000E-01  0.0000000000E+00  9.0000000000E+00
 223 2 73 0 0 0  4.9271655189E-01  2.5357246447E+00  5.2851607973E+00  5.9333488493E+00  7.7397341104E-01  0.0000000000E+00  9.0000000000E+00
 311 2 74 0 0 0  7.2166385142E-01  2.4690473955E+00  5.6224564067E+00  6.2029577807E+00  4.9767000000E-01  0.0000000000E+00  9.0000000000E+00
 211 1 74 0 0 0 -6.4525068574E-02  8.7453784016E-01  2.6352667207E+00  2.7808434678E+00  1.3957000000E-01  0.0000000000E+00  9.0000000000E+00
 -321 1 75 0 0 0  3.7606470222E-01  6.6403885659E-01  9.9293906034E-01  1.3460836530E+00  4.9360000000E-01  0.0000000000E+00  9.0000000000E+00
 211 1 75 0 0 0  6.0922413505E-01  1.7326525996E-01  1.0601947577E+00  1.2428465739E+00  1.3957000000E-01  0.0000000000E+00  9.0000000000E+00
 211 1 76 0 0 0  2.6013765893E-01  3.0609111539E-01  1.0721942012E+00  1.1534485522E+00  1.3957000000E-01  0.0000000000E+00  9.0000000000E+00
 -211 1 76 0 0 0  1.0177974186E-01  5.3642512569E-01  6.8552571194E-01  8.8743243008E-01  1.3957000000E-01  0.0000000000E+00  9.0000000000E+00
 111 2 76 0 0 0  3.0480075723E-01  5.2320194175E-01  1.8506556832E+00  1.9518682926E+00  1.3498000000E-01  1.5701990420E-05  9.0000000000E+00
 130 1 77 0 0 0  3.1932050508E+00 -6.7331338398E-02  3.2043118236E+00  4.5515252056E+00  4.9767000000E-01  0.0000000000E+00  9.0000000000E+00
 -321 1 78 0 0 0  6.9698088283E-01 -2.1654577624E-01  1.0211361728E+00  1.3487158588E+00  4.9360000000E-01  0.0000000000E+00  9.0000000000E+00
 211 1 78 0 0 0  5.2562006700E-01  3.5712279644E-02  1.4483208317E+00  1.5474704644E+00  1.3957000000E-01  0.0000000000E+00  9.0000000000E+00
 -211 1 79 0 0 0 -6.3333847204E-02 -1.2435996315E-01  8.9056855836E-01  9.1217800821E-01  1.3957000000E-01  0.0000000000E+00  9.0000000000E+00
 111 2 79 0 0 0  4.7168165989E-01  6.6910087503E-01  7.7384218177E-01  1.1345619824E+00  1.3498000000E-01  2.1067896024E-05  9.0000000000E+00
 -211 1 83 0 0 0  1.4935428286E-01  9.5148862053E-01 -6.5972999022E-02  9.7543299017E-01  1.3957000000E-01  0.0000000000E+00  9.0000000000E+00
 211 1 83 0 0 0 -2.8833946275E-02  7.1782863919E-01 -2.8794815546E-01  7.8644979295E-01  1.3957000000E-01  0.0000000000E+00  9.0000000000E+00
 111 2 83 0 0 0  1.9409307807E-01  1.9661200774E-01 -1.7140960182E-01  3.5203587393E-01  1.3498000000E-01  9.9469868830E-06  9.0000000000E+00
 -211 1 84 0 0 0 -5.7896226894E-02  1.1375242885E+00 -5.1450307698E-01  1.2575796917E+00  1.3957000000E-01  0.0000000000E+00  9.0000000000E+00
 111 2 84 0 0 0 -1.0049490637E-01  4.0806884509E-01 -7.6150438585E-01  8.8018630903E-01  1.3498000000E-01  3.4882769081E-05  9.0000000000E+00
 213 2 85 0 0 0  4.7001110430E-01  1.8901949739E+00 -1.1330278074E+00  2.3794923832E+00  7.6451586759E-01  0.0000000000E+00  9.0000000000E+00
 111 2 85 0 0 0 -1.9153355483E-01  1.4875986032E+00 -4.2516872541E-01  1.5648075768E+00  1.3498000000E-01  6.9513956680E-06  9.0000000000E+00
 22 1 86 0 0 0 -1.4977366483E-01  2.2346190960E-01 -5.0936487448E-01  5.7603815071E-01 -7.4505805969E-09  0.0000000000E+00  9.0000000000E+00
 22 1 86 0 0 0 -3.4532814328E-04  1.7214326093E-01 -4.2388880902E-01  4.5750972005E-01 -9.1250603750E-09  0.0000000000E+00  9.0000000000E+00
 -411 2 87 0 0 0 -4.5269840382E+00  4.8187829684E+01 -2.9536408288E+01  5.6731421727E+01  1.8693000000E+00  1.1591346129E-01  9.0000000000E+00
 111 2 87 0 0 0 -4.1706846600E-01  4.2097965813E+00 -2.5492296578E+00  4.9409639555E+00  1.3498000000E-01  2.3057317350E-05  9.0000000000E+00
 20433 2 88 0 0 0  3.3280786581E+01  1.4627793192E+01  1.6229018642E+01  3.9892593622E+01  2.5406476923E+00  0.0000000000E+00  9.0000000000E+00
 -323 2 88 0 0 0  7.6585468438E+00  5.0254888073E+00  3.9327838670E+00  1.0010572005E+01  9.1426769014E-01  0.0000000000E+00  9.0000000000E+00
 311 2 88 0 0 0  1.1027131965E+01  5.4250058780E+00  5.7156767586E+00  1.3562631175E+01  4.9767000000E-01  0.0000000000E+00  9.0000000000E+00
 310 2 90 0 0 0  7.8922440921E-01  5.2801329347E-01  3.4430091563E-01  1.1260069962E+00  4.9767000000E-01  1.2996870277E+01  9.0000000000E+00
 22 1 93 0 0 0  1.9150668984E-01 -1.6377533192E-01  1.0608716906E-01  2.7340749631E-01 -3.7252902985E-09  0.0000000000E+00  9.0000000000E+00
 22 1 93 0 0 0  7.2136120522E-03 -4.7245913283E-02  8.9377094158E-02  1.0135323123E-01  1.3170890160E-09  0.0000000000E+00  9.0000000000E+00
 -2212 1 94 0 0 0 -9.8349570252E-01 -4.3504723995E-01  2.3982052323E-01  1.4472022575E+00  9.3827000000E-01  0.0000000000E+00  9.0000000000E+00
 211 1 94 0 0 0 -2.6596536233E-01 -3.8938759237E-03  1.0662925338E-01  3.1875118636E-01  1.3957000000E-01  0.0000000000E+00  9.0000000000E+00
 211 1 98 0 0 0  2.0388994448E-03 -3.0204106386E-03  2.1836341966E-02  1.4131486377E-01  1.3957000000E-01  0.0000000000E+00  9.0000000000E+00
 -211 1 98 0 0 0 -6.2017767354E-02  7.9117147873E-03 -1.7607857917E-01  2.3322146051E-01  1.3957000000E-01  0.0000000000E+00  9.0000000000E+00
 111 2 98 0 0 0 -3.2161531282E-01 -1.8578492703E-01  3.8779948068E-01  5.5367904617E-01  1.3498000000E-01  1.2880772232E-05  9.0000000000E+00
 -321 1 100 0 0 0 -1.5699189467E+00  6.1895433889E-02 -3.7055828655E-01  1.6880257545E+00  4.9360000000E-01  0.0000000000E+00  9.0000000000E+00
 211 1 100 0 0 0 -2.5227130646E-01  8.6859888260E-02  1.7689708058E-01  3.4922459002E-01  1.3957000000E-01  0.0000000000E+00  9.0000000000E+00
 130 1 101 0 0 0 -1.1463341847E+00  2.3069395152E-01 -2.6858471234E-01  1.2988898871E+00  4.9767000000E-01  0.0000000000E+00  9.0000000000E+00
 22 1 102 0 0 0 -2.6238905573E-01 -4.3745247089E-03 -2.3796833930E-01  3.5425426397E-01 -1.1780402288E-08  0.0000000000E+00  9.0000000000E+00
 22 1 102 0 0 0  3.4316966675E-02  1.3684925594E-01  2.1122220504E-01  2.5400825371E-01 -7.4505805969E-09  0.0000000000E+00  9.0000000000E+00
 22 1 103 0 0 0  1.3146664952E-01 -3.1899471602E-01  2.3598623506E-02  3.4582944325E-01 -3.7252902985E-09  0.0000000000E+00  9.0000000000E+00
 211 1 103 0 0 0 -6.5308392318E-02 -3.7672987933E-01 -1.5010324196E-01  4.3382180239E-01  1.3957000000E-01  0.0000000000E+00  9.0000000000E+00
 -211 1 103 0 0 0  5.1774662696E-02 -5.3837033139E-01  1.3904730424E-01  5.7561894265E-01  1.3957000000E-01  0.0000000000E+00  9.0000000000E+00
 13 1 105 0 0 0 -3.6093922631E+00 -2.7821143002E+00  3.4048198074E+00  5.6896251585E+00  1.0566000000E-01  0.0000000000E+00  9.0000000000E+00
 -14 1 105 0 0 0 -1.0392187494E+00 -1.0891137050E+00  1.2702549625E+00  1.9696933623E+00  4.2146848511E-08  0.0000000000E+00  9.0000000000E+00
 313 2 105 0 0 0 -4.1301578292E+00 -3.7293142829E+00  4.7534922609E+00  7.3704233450E+00  8.7261841349E-01  0.0000000000E+00  9.0000000000E+00
 211 1 105 0 0 0 -7.6704613081E-01 -4.0582469113E-01  5.0889474416E-01  1.0156313762E+00  1.3957000000E-01  0.0000000000E+00  9.0000000000E+00
 211 1 106 0 0 0 -4.3357924207E+00 -4.6417001025E+00  3.7098265413E+00  7.3570896765E+00  1.3957000000E-01  0.0000000000E+00  9.0000000000E+00
 111 2 106 0 0 0 -1.8220637802E+01 -1.9990936888E+01  1.7288045038E+01  3.2101774412E+01  1.3498000000E-01  2.0956664668E-06  9.0000000000E+00
 -323 2 107 0 0 0 -1.6627473705E+00 -3.1127584413E+00 -1.3129378657E+01  1.3624017070E+01  8.8275889992E-01  0.0000000000E+00  9.0000000000E+00
 213 2 107 0 0 0 -2.2638252638E+00 -4.7701593218E+00 -2.3497554150E+01  2.4092914569E+01  6.7391140349E-01  0.0000000000E+00  9.0000000000E+00
 22 1 108 0 0 0 -3.6040977880E-01 -5.6397610104E-01 -2.7795173697E+00  2.8589650330E+00 -7.3000483000E-08  0.0000000000E+00  9.0000000000E+00
 -11 1 108 0 0 0  1.0288007175E-02 -3.4574850606E-02 -1.2780494022E-01  1.3279919515E-01  5.0999999999E-04  0.0000000000E+00  9.0000000000E+00
 11 1 108 0 0 0 -8.7485610137E-03 -2.1689278526E-02 -9.8508645158E-02  1.0124808835E-01  5.1000000000E-04  0.0000000000E+00  9.0000000000E+00
 -211 1 109 0 0 0 -3.2033390453E-02 -2.2038551499E-03 -3.6767847146E-01  3.9458616088E-01  1.3957000000E-01  0.0000000000E+00  9.0000000000E+00
 211 1 109 0 0 0 -7.4248425448E-02 -1.1378198007E-01 -6.4001130784E-01  6.6899433983E-01  1.3957000000E-01  0.0000000000E+00  9.0000000000E+00
 111 2 109 0 0 0 -2.7148586563E-01 -3.6036101857E-01 -1.8383270018E+00  1.8976908086E+00  1.3498000000E-01  6.3308086396E-06  9.0000000000E+00
 130 1 112 0 0 0 -8.1000978497E-01 -6.0919764926E+00  1.2267057940E+00  6.2865551752E+00  4.9767000000E-01  0.0000000000E+00  9.0000000000E+00
 -211 1 114 0 0 0 -2.6198508494E-01 -1.2864371825E+00  4.9310591349E-02  1.3211616588E+00  1.3957000000E-01  0.0000000000E+00  9.0000000000E+00
 211 1 114 0 0 0 -2.2496900661E-02 -1.8384131990E-01 -6.0865885314E-02  2.3976693337E-01  1.3957000000E-01  0.0000000000E+00  9.0000000000E+00
 111 2 114 0 0 0 -1.1612555732E-01 -9.3179387885E-01  3.7337560393E-01  1.0194870866E+00  1.3498000000E-01  3.3653618048E-05  9.0000000000E+00
 2212 1 116 0 0 0 -1.2905321164E+00 -7.0376548963E+00  7.8255088859E-01  7.2585670810E+00  9.3827000000E-01  0.0000000000E+00  9.0000000000E+00
 -211 1 116 0 0 0 -1.0872722313E-01 -5.0288109134E-01  8.5011571998E-02  5.3983122673E-01  1.3957000000E-01  0.0000000000E+00  9.0000000000E+00
 22 1 119 0 0 0 -2.4025987406E-01 -6.8151825107E-01 -1.1347173961E-01  7.3148326661E-01  1.0536712128E-08  0.0000000000E+00  9.0000000000E+00
 22 1 119 0 0 0 -1.1251092565E-01 -1.4265276657E-01 -6.1791330416E-02  1.9190281060E-01  2.6341780319E-09  0.0000000000E+00  9.0000000000E+00
 22 1 124 0 0 0 -3.4212480422E-03 -3.7593129854E-03 -8.4237488663E-03  9.8385424353E-03  5.8207660913E-10  0.0000000000E+00  9.0000000000E+00
 22 1 124 0 0 0  3.4522310345E-01 -1.5882227636E+00 -2.7530790085E-01  1.6484613972E+00 -2.9802322388E-08  0.0000000000E+00  9.0000000000E+00
 2112 1 125 0 0 0 -2.7853239382E-01 -2.4703600102E+00 -3.5023132461E-01  2.6806179586E+00  9.3957000000E-01  0.0000000000E+00  9.0000000000E+00
 111 2 125 0 0 0  4.2320695347E-02 -1.9308658624E-01 -1.8467479097E-02  2.4007107120E-01  1.3498000000E-01  7.8909920967E-05  9.0000000000E+00
 22 1 126 0 0 0 -1.3144760092E-02 -8.5785781909E-03 -6.0222323714E-02  6.2234275083E-02  1.8626451492E-09  0.0000000000E+00  9.0000000000E+00
 22 1 126 0 0 0  6.7247271203E-02 -1.2826414396E-01  5.1073722213E-03  1.4491366865E-01  4.9280958456E-09  0.0000000000E+00  9.0000000000E+00
 22 1 128 0 0 0  1.7917071428E-01 -1.4868067718E-01 -2.5600363335E-01  3.4604327607E-01 -5.2683560639E-09  0.0000000000E+00  9.0000000000E+00
 22 1 128 0 0 0  4.8967819356E-02 -1.3793023299E-01 -6.8442320476E-02  1.6157644549E-01 -3.7252902985E-09  0.0000000000E+00  9.0000000000E+00
 22 1 130 0 0 0 -2.4674686068E-01 -2.6208584059E-01  4.2690396955E-01  5.5840845293E-01  0.0000000000E+00  0.0000000000E+00  9.0000000000E+00
 22 1 130 0 0 0 -3.2095836841E-01 -1.5796638266E-01  4.9445309932E-01  6.1028806291E-01 -7.4505805969E-09  0.0000000000E+00  9.0000000000E+00
 -211 1 131 0 0 0 -2.5891839858E-01  2.5118539751E-01  2.5363193443E-02  3.8762858193E-01  1.3957000000E-01  0.0000000000E+00  9.0000000000E+00
 211 1 131 0 0 0 -1.4032202019E-01 -1.0333076515E-01 -1.4174871616E-01  2.6446171710E-01  1.3957000000E-01  0.0000000000E+00  9.0000000000E+00
 111 2 131 0 0 0 -7.5770527337E-01  9.6082804482E-02 -9.0735667186E-02  7.8089803964E-01  1.3498000000E-01  4.5355166774E-05  9.0000000000E+00
 -211 1 133 0 0 0 -8.8562345937E-01 -3.9321450177E-01  9.7407700660E-01  1.3810330756E+00  1.3957000000E-01  0.0000000000E+00  9.0000000000E+00
 211 1 133 0 0 0 -5.8060693158E-01  5.1271312042E-02  4.3890135482E-01  7.4286428141E-01  1.3957000000E-01  0.0000000000E+00  9.0000000000E+00
 211 1 135 0 0 0 -4.5274682212E-02  1.0169010508E-01  4.2217373497E-01  4.5836788906E-01  1.3957000000E-01  0.0000000000E+00  9.0000000000E+00
 -211 1 135 0 0 0  2.5110917597E-01  1.0017730259E+00  1.8322445887E+00  2.1078911337E+00  1.3957000000E-01  0.0000000000E+00  9.0000000000E+00
 111 2 135 0 0 0  2.8688205813E-01  1.4322615136E+00  3.0307424736E+00  3.3670898266E+00  1.3498000000E-01  1.6352677966E-05  9.0000000000E+00
 310 2 136 0 0 0  7.2166385142E-01  2.4690473955E+00  5.6224564067E+00  6.2029577807E+00  4.9767000000E-01  1.8295844770E+00  9.0000000000E+00
 22 1 142 0 0 0  2.1907205395E-01  3.5882815556E-01  1.4622539639E+00  1.5214916579E+00  0.0000000000E+00  0.0000000000E+00  9.0000000000E+00
 22 1 142 0 0 0  8.5728703275E-02  1.6437378619E-01  3.8840171929E-01  4.3037663470E-01  5.2683560639E-09  0.0000000000E+00  9.0000000000E+00
 22 1 147 0 0 0  2.1538520792E-02  3.2070059617E-02  8.7193683207E-02  9.5368417167E-02  3.2261960349E-09  0.0000000000E+00  9.0000000000E+00
 22 1 147 0 0 0  4.5014313910E-01  6.3703081541E-01  6.8664849856E-01  1.0391935652E+00  0.0000000000E+00  0.0000000000E+00  9.0000000000E+00
 22 1 150 0 0 0  1.7360793120E-01  8.4278558370E-02 -9.9919050255E-02  2.1731637255E-01  5.2683560639E-09  0.0000000000E+00  9.0000000000E+00
 22 1 150 0 0 0  2.0485146869E-02  1.1233344937E-01 -7.1490551567E-02  1.3471950138E-01  2.6341780319E-09  0.0000000000E+00  9.0000000000E+00
 22 1 152 0 0 0 -7.7243958262E-02  4.1076935770E-01 -7.1879515237E-01  8.3148335244E-01 -1.8250120750E-08  0.0000000000E+00  9.0000000000E+00
 22 1 152 0 0 0 -2.3250948113E-02 -2.7005126100E-03 -4.2709233481E-02  4.8702956594E-02 -1.8626451492E-09  0.0000000000E+00  9.0000000000E+00
 211 1 153 0 0 0  3.7654734110E-03  1.0331094594E+00 -8.7558380560E-01  1.3614169528E+00  1.3957000000E-01  0.0000000000E+00  9.0000000000E+00
 111 2 153 0 0 0  4.6624563089E-01  8.5708551442E-01 -2.5744400183E-01  1.0180754303E+00  1.3498000000E-01  1.8702942355E-05  9.0000000000E+00
 22 1 154 0 0 0 -8.8221577441E-02  2.8271317570E-01 -8.8683858648E-02  3.0915144060E-01 -3.7252902985E-09  0.0000000000E+00  9.0000000000E+00
 11 1 154 0 0 0 -1.0231306837E-01  1.2036776993E+00 -3.3552358044E-01  1.2537481010E+00  5.1000000085E-04  0.0000000000E+00  9.0000000000E+00
 -11 1 154 0 0 0 -9.9890901427E-04  1.2077281838E-03 -9.6128633072E-04  1.9080351135E-03  5.1000000000E-04  0.0000000000E+00  9.0000000000E+00
 321 1 157 0 0 0 -3.0470601904E+00  3.3348484979E+01 -1.9801536646E+01  3.8906946947E+01  4.9360000000E-01  0.0000000000E+00  9.0000000000E+00
 -211 1 157 0 0 0 -1.0207023986E+00  8.0937775230E+00 -5.0039590295E+00  9.5713193308E+00  1.3957000000E-01  0.0000000000E+00  9.0000000000E+00
 -211 1 157 0 0 0 -4.5922144915E-01  6.7455671817E+00 -4.7309126124E+00  8.2531554494E+00  1.3957000000E-01  0.0000000000E+00  9.0000000000E+00
 22 1 158 0 0 0 -3.6645552623E-01  3.2521437287E+00 -1.9299274440E+00  3.7993879012E+00  4.2146848511E-08  0.0000000000E+00  9.0000000000E+00
 22 1 158 0 0 0 -5.0612939763E-02  9.5765285258E-01 -6.1930221373E-01  1.1415760543E+00  0.0000000000E+00  0.0000000000E+00  9.0000000000E+00
 413 2 159 0 0 0  2.6907154245E+01  1.1659852459E+01  1.3145402946E+01  3.2199205387E+01  2.0100000000E+00  0.0000000000E+00  9.0000000000E+00
 311 2 159 0 0 0  6.3736323359E+00  2.9679407325E+00  3.0836156954E+00  7.6933882347E+00  4.9767000000E-01  0.0000000000E+00  9.0000000000E+00
 -311 2 160 0 0 0  6.4412043823E+00  4.2215012748E+00  3.0402081101E+00  8.2946204065E+00  4.9767000000E-01  0.0000000000E+00  9.0000000000E+00
 -211 1 160 0 0 0  1.2173424615E+00  8.0398753252E-01  8.9257575687E-01  1.7159515983E+00  1.3957000000E-01  0.0000000000E+00  9.0000000000E+00
 310 2 161 0 0 0  1.1027131965E+01  5.4250058780E+00  5.7156767586E+00  1.3562631175E+01  4.9767000000E-01  3.7158664154E+00  9.0000000000E+00
 -211 1 162 0 0 0  3.7152620684E-01  4.7939075907E-01  2.6246849724E-01  6.7543816830E-01  1.3957000000E-01  0.0000000000E+00  9.0000000000E+00
 211 1 162 0 0 0  4.1769820236E-01  4.8622534400E-02  8.1832418391E-02  4.5056882794E-01  1.3957000000E-01  0.0000000000E+00  9.0000000000E+00
 22 1 169 0 0 0 -2.6120634146E-01 -2.0447459272E-01  3.3250646626E-01  4.6967985053E-01  5.2683560639E-09  0.0000000000E+00  9.0000000000E+00
 22 1 169 0 0 0 -6.0408971364E-02  1.8689665693E-02  5.5293014416E-02  8.3999195640E-02  9.3132257462E-10  0.0000000000E+00  9.0000000000E+00
 311 2 180 0 0 0 -1.8307400420E+00 -1.9484767910E+00  2.2061798109E+00  3.5018674580E+00  4.9767000000E-01  0.0000000000E+00  9.0000000000E+00
 111 2 180 0 0 0 -2.2994177872E+00 -1.7808374919E+00  2.5473124500E+00  3.8685558870E+00  1.3498000000E-01  7.2397951476E-05  9.0000000000E+00
 22 1 183 0 0 0 -7.6147096222E+00 -8.2572385373E+00  7.1656422827E+00  1.3323371203E+01  1.6858739404E-07  0.0000000000E+00  9.0000000000E+00
 22 1 183 0 0 0 -1.0605928179E+01 -1.1733698351E+01  1.0122402755E+01  1.8778403209E+01  2.3841857910E-07  0.0000000000E+00  9.0000000000E+00
 -311 2 184 0 0 0 -1.4776176201E+00 -2.7540198201E+00 -1.2152794474E+01  1.2558107658E+01  4.9767000000E-01  0.0000000000E+00  9.0000000000E+00
 -211 1 184 0 0 0 -1.8512975033E-01 -3.5873862112E-01 -9.7658418283E-01  1.0659094116E+00  1.3957000000E-01  0.0000000000E+00  9.0000000000E+00
 211 1 185 0 0 0 -4.0396337577E-01 -6.5505041898E-01 -4.3332635934E+00  4.4032863426E+00  1.3957000000E-01  0.0000000000E+00  9.0000000000E+00
 111 2 185 0 0 0 -1.8598618880E+00 -4.1151089028E+00 -1.9164290557E+01  1.9689628226E+01  1.3498000000E-01  1.5239216979E-06  9.0000000000E+00
 22 1 191 0 0 0 -2.4281282645E-01 -3.0839149384E-01 -1.3541263486E+00  1.4098657915E+00 -2.1073424255E-08  0.0000000000E+00  9.0000000000E+00
 22 1 191 0 0 0 -2.8673039178E-02 -5.1969524739E-02 -4.8420065324E-01  4.8782501707E-01 -7.4505805969E-09  0.0000000000E+00  9.0000000000E+00
 22 1 195 0 0 0 -4.0143101246E-02 -5.4602819369E-01  2.8188040244E-01  6.1580420440E-01 -1.9712383383E-08  0.0000000000E+00  9.0000000000E+00
 22 1 195 0 0 0 -7.5982456077E-02 -3.8576568517E-01  9.1495201490E-02  4.0368288220E-01 -1.1780402288E-08  0.0000000000E+00  9.0000000000E+00
 22 1 203 0 0 0 -1.6619381512E-02 -1.4922972758E-02 -4.5295497388E-02  5.0503277531E-02  1.1406325469E-09  0.0000000000E+00  9.0000000000E+00
 22 1 203 0 0 0  5.8940076859E-02 -1.7816361349E-01  2.6828018291E-02  1.8956779367E-01  3.7252902985E-09  0.0000000000E+00  9.0000000000E+00
 22 1 212 0 0 0 -1.4888482674E-01  5.4926472926E-02 -6.0839956547E-02  1.6995619840E-01  4.5625301875E-09  0.0000000000E+00  9.0000000000E+00
 22 1 212 0 0 0 -6.0882044663E-01  4.1156331556E-02 -2.9895710640E-02  6.1094184124E-01  1.6660004687E-08  0.0000000000E+00  9.0000000000E+00
 22 1 217 0 0 0  1.8099074948E-01  9.9243280028E-01  1.9502822159E+00  2.1957416142E+00  0.0000000000E+00  0.0000000000E+00  9.0000000000E+00
 22 1 217 0 0 0  1.0589130866E-01  4.3982871336E-01  1.0804602576E+00  1.1713482124E+00  1.4901161194E-08  0.0000000000E+00  9.0000000000E+00
 211 1 218 0 0 0  9.2851251471E-02  7.2560180065E-01  1.9402236680E+00  2.0782365108E+00  1.3957000000E-01  0.0000000000E+00  9.0000000000E+00
 -211 1 218 0 0 0  6.2881259995E-01  1.7434455948E+00  3.6822327387E+00  4.1247212700E+00  1.3957000000E-01  0.0000000000E+00  9.0000000000E+00
 22 1 228 0 0 0  4.8974889038E-02  2.0112236248E-01 -6.8142851911E-02  2.1792703529E-01  5.8902011442E-09  0.0000000000E+00  9.0000000000E+00
 22 1 228 0 0 0  4.1727074185E-01  6.5596315194E-01 -1.8930114992E-01  8.0014839503E-01 -1.4901161194E-08  0.0000000000E+00  9.0000000000E+00
 421 2 237 0 0 0  2.4526427182E+01  1.0631950240E+01  1.1959611729E+01  2.9344380538E+01  1.8645000000E+00  7.8740922329E-02  9.0000000000E+00
 211 1 237 0 0 0  2.3807270634E+00  1.0279022190E+00  1.1857912176E+00  2.8548248490E+00  1.3957000000E-01  0.0000000000E+00  9.0000000000E+00
 310 2 238 0 0 0  6.3736323359E+00  2.9679407325E+00  3.0836156954E+00  7.6933882347E+00  4.9767000000E-01  3.1690594221E+01  9.0000000000E+00
 310 2 239 0 0 0  6.4412043823E+00  4.2215012748E+00  3.0402081101E+00  8.2946204065E+00  4.9767000000E-01  3.5701361118E+01  9.0000000000E+00
 211 1 241 0 0 0  2.5557631272E+00  1.3471376542E+00  1.4959617963E+00  3.2563916384E+00  1.3957000000E-01  0.0000000000E+00  9.0000000000E+00
 -211 1 241 0 0 0  8.4713688381E+00  4.0778682238E+00  4.2197149623E+00  1.0306239537E+01  1.3957000000E-01  0.0000000000E+00  9.0000000000E+00
 130 1 246 0 0 0 -1.8307400420E+00 -1.9484767910E+00  2.2061798109E+00  3.5018674580E+00  4.9767000000E-01  0.0000000000E+00  9.0000000000E+00
 22 1 247 0 0 0 -3.6386786536E-01 -3.4422324673E-01  4.5498472359E-01  6.7668350485E-01  1.6660004687E-08  0.0000000000E+00  9.0000000000E+00
 22 1 247 0 0 0 -1.9355499218E+00 -1.4366142452E+00  2.0923277264E+00  3.1918723822E+00  7.3000483000E-08  0.0000000000E+00  9.0000000000E+00
 310 2 250 0 0 0 -1.4776176201E+00 -2.7540198201E+00 -1.2152794474E+01  1.2558107658E+01  4.9767000000E-01  1.9675704674E+01  9.0000000000E+00
 22 1 253 0 0 0 -1.0019832421E+00 -2.1006092885E+00 -1.0081213157E+01  1.0346370790E+01 -3.1539813412E-07  0.0000000000E+00  9.0000000000E+00
 22 1 253 0 0 0 -8.5787864594E-01 -2.0144996143E+00 -9.0830774001E+00  9.3432574364E+00 -2.6656007499E-07  0.0000000000E+00  9.0000000000E+00
 -323 2 268 0 0 0  2.3797736431E+01  1.0299005651E+01  1.1310946341E+01  2.8304145526E+01  8.8621115144E-01  0.0000000000E+00  9.0000000000E+00
 211 1 268 0 0 0  7.2869075122E-01  3.3294458925E-01  6.4866538790E-01  1.0402350123E+00  1.3957000000E-01  0.0000000000E+00  9.0000000000E+00
 -211 1 270 0 0 0  3.0402719783E+00  1.2032986253E+00  1.5096050559E+00  3.6041043954E+00  1.3957000000E-01  0.0000000000E+00  9.0000000000E+00
 211 1 270 0 0 0  3.3333603576E+00  1.7646421073E+00  1.5740106395E+00  4.0892838393E+00  1.3957000000E-01  0.0000000000E+00  9.0000000000E+00
 111 2 271 0 0 0  2.7275219965E+00  1.5630024234E+00  1.1546135951E+00  3.3516719666E+00  1.3498000000E-01  3.8669812160E-05  9.0000000000E+00
 111 2 271 0 0 0  3.7136823858E+00  2.6584988513E+00  1.8855945150E+00  4.9429484400E+00  1.3498000000E-01  3.5086113590E-05  9.0000000000E+00
 -211 1 277 0 0 0 -1.1804005874E+00 -2.0409483505E+00 -9.6645260313E+00  9.9489375770E+00  1.3957000000E-01  0.0000000000E+00  9.0000000000E+00
 211 1 277 0 0 0 -2.9721703270E-01 -7.1307146960E-01 -2.4882684426E+00  2.6091700812E+00  1.3957000000E-01  0.0000000000E+00  9.0000000000E+00
 -321 1 280 0 0 0  1.7508031860E+01  7.2903172412E+00  8.1839240500E+00  2.0661562354E+01  4.9360000000E-01  0.0000000000E+00  9.0000000000E+00
 111 2 280 0 0 0  6.2897045706E+00  3.0086884098E+00  3.1270222906E+00  7.6425831719E+00  1.3498000000E-01  2.5656846386E-05  9.0000000000E+00
 22 1 284 0 0 0  1.1305609979E+00  6.5036363097E-01  4.0841983014E-01  1.3667288612E+00 -2.1073424255E-08  0.0000000000E+00  9.0000000000E+00
 22 1 284 0 0 0  1.5969609986E+00  9.1263879247E-01  7.4619376492E-01  1.9849431053E+00 -5.1619136559E-08  0.0000000000E+00  9.0000000000E+00
 22 1 285 0 0 0  3.6667675657E+00  2.6155260941E+00  1.8737842965E+00  4.8782403302E+00 -5.9604644775E-08  0.0000000000E+00  9.0000000000E+00
 22 1 285 0 0 0  4.6914820076E-02  4.2972757221E-02  1.1810218543E-02  6.4708109754E-02  7.4505805969E-09  0.0000000000E+00  9.0000000000E+00
 22 1 289 0 0 0  3.5233116871E+00  1.6269021035E+00  1.7856522629E+00  4.2718953291E+00 -8.4293697022E-08  0.0000000000E+00  9.0000000000E+00
 22 1 289 0 0 0  2.7663928835E+00  1.3817863064E+00  1.3413700276E+00  3.3706878427E+00 -7.3000483000E-08  0.0000000000E+00  9.0000000000E+00
<weights>1.9771519426E+10</weights>
</event>
<event>
 215 1  1.0000000000E+00  3.6574127832E+02 -1.0000000000E+00  1.1780000000E-01
 11 -9 0 0 0 0  0.0000000000E+00  0.0000000000E+00  1.8250000000E+02  1.8250000000E+02  5.1099700000E-04  0.0000000000E+00  9.0000000000E+00
 -11 -9 0 0 0 0  0.0000000000E+00  0.0000000000E+00 -1.8250000000E+02  1.8250000000E+02  5.1099700000E-04  0.0000000000E+00  9.0000000000E+00
 11 2 1 2 0 0  0.0000000000E+00  0.0000000000E+00  1.8280087069E+02  1.8280087070E+02  5.1099859771E-04  0.0000000000E+00  9.0000000000E+00
 -11 2 1 2 0 0  0.0000000000E+00  0.0000000000E+00 -1.8295679806E+02  1.8295679806E+02  5.1099859771E-04  0.0000000000E+00  9.0000000000E+00
 11 -1 3 0 0 0  0.0000000000E+00  0.0000000000E+00  1.8278452084E+02  1.8278452084E+02  5.1099700000E-04  0.0000000000E+00  9.0000000000E+00
 -11 -1 4 0 0 0  0.0000000000E+00  0.0000000000E+00 -1.8295679806E+02  1.8295679806E+02  5.1099700000E-04  0.0000000000E+00  9.0000000000E+00
 22 1 3 0 0 0  0.0000000000E+00  0.0000000000E+00  1.6349859080E-02  1.6349859080E-02  0.0000000000E+00  0.0000000000E+00  9.0000000000E+00
 22 1 4 0 0 0  0.0000000000E+00  0.0000000000E+00 -6.6701493264E-14  6.6701493264E-14  0.0000000000E+00  0.0000000000E+00  9.0000000000E+00
 6 2 5 6 501 0  4.2358500302E+01  1.7977575992E+00 -4.1081096342E+01  1.8288996954E+02  1.7310000000E+02  0.0000000000E+00  9.0000000000E+00
 -6 2 5 6 0 501 -4.2358500302E+01 -1.7977575992E+00  4.0908819120E+01  1.8285134936E+02  1.7310000000E+02  0.0000000000E+00  9.0000000000E+00
 24 2 9 0 0 0  5.3955922114E+01 -5.8462302587E+01 -6.3779245829E+01  1.1728493134E+02  5.7955850146E+01  0.0000000000E+00  9.0000000000E+00
 5 2 9 0 1000 0 -1.1597421812E+01  6.0260060186E+01  2.2698149487E+01  6.5605038195E+01  4.8000000000E+00  0.0000000000E+00  9.0000000000E+00
 -13 2 11 0 0 0  4.0680085719E+01 -1.1524903420E+01 -3.7694778583E+00  4.2448944631E+01  1.0566000000E-01  0.0000000000E+00  9.0000000000E+00
 14 2 11 0 0 0 -4.1257002411E+00 -2.3645876740E+01 -3.8603867896E+01  4.5457755178E+01  6.7434957617E-07  0.0000000000E+00  9.0000000000E+00
 -24 2 10 0 0 0  3.3462618028E+01  2.7328237606E+01  4.6612059493E+01  1.0128706470E+02  7.8865746740E+01  0.0000000000E+00  9.0000000000E+00
 -5 2 10 0 1001 1000 -7.5821118330E+01 -2.9125995205E+01 -5.7032403728E+00  8.1564284661E+01  4.8000000000E+00  0.0000000000E+00  9.0000000000E+00
 3 2 15 0 1002 1001  1.0887521406E+01  4.9956831406E+01  9.5361442112E+00  5.2013567201E+01  5.0000000000E-01  0.0000000000E+00  9.0000000000E+00
 -2 2 15 0 1003 1002  1.9815878248E+01 -2.4228250676E+01  3.5224072960E+01  4.7122408443E+01  3.3000000000E-01  0.0000000000E+00  9.0000000000E+00
 -13 1 13 0 0 0  4.0680085719E+01 -1.1524903420E+01 -3.7694778583E+00  4.2448944631E+01  1.0566000000E-01  0.0000000000E+00  9.0000000000E+00
 14 1 14 0 0 0 -4.1257002411E+00 -2.3645876740E+01 -3.8603867896E+01  4.5457755178E+01  6.7434957617E-07  0.0000000000E+00  9.0000000000E+00
 5 2 12 0 1004 1003 -1.8930057345E+01 -2.0782500026E+00  3.3321105688E+01  3.8678188665E+01  4.8000000000E+00  0.0000000000E+00  9.0000000000E+00
 21 2 12 0 1005 1004  8.7679321367E+00  1.1767706292E+01 -9.3047226523E+00  1.7376231150E+01 -3.3717478809E-07  0.0000000000E+00  9.0000000000E+00
 21 2 12 0 1006 1005  1.5966240033E+01  2.7279081470E+01 -2.2724133623E+01  3.8928849913E+01  4.7683715820E-07  0.0000000000E+00  9.0000000000E+00
 21 2 16 0 1007 1006 -5.7175420852E+00 -8.1855487920E+00 -8.8017365468E+00  1.3310299124E+01 -2.3841857910E-07  0.0000000000E+00  9.0000000000E+00
 -5 2 16 0 0 1007 -6.7344357871E+01 -1.9340789537E+01  4.9503384960E+00  7.0405074591E+01  4.8000000000E+00  0.0000000000E+00  9.0000000000E+00
 3 2 17 0 1008 0  1.1885221101E+01  4.4743414782E+01  7.9682265979E+00  4.6978444867E+01  5.0000000000E-01  0.0000000000E+00  9.0000000000E+00
 21 2 17 0 1009 1008 -9.9398465948E-01  4.1470214329E+00  1.7392851741E+00  4.6055298485E+00  0.0000000000E+00  0.0000000000E+00  9.0000000000E+00
 21 2 18 0 1010 1009  3.5556820702E+00 -7.4359903336E+00  1.5912025918E+01  1.7920083595E+01  2.3841857910E-07  0.0000000000E+00  9.0000000000E+00
 -2 2 18 0 0 1010  1.6256481142E+01 -1.5725865151E+01  1.9140679480E+01  2.9631917333E+01  3.3000000000E-01  0.0000000000E+00  9.0000000000E+00
 92 2 21 25 0 0 -6.7257785131E+01  9.4421994300E+00 -2.5591486383E+00  1.7869864344E+02  1.6526914756E+02  0.0000000000E+00  9.0000000000E+00
 -533 2 30 0 0 0 -1.5951407712E+01 -1.7296731732E+00  2.8052632190E+01  3.2767753291E+01  5.4163000000E+00  0.0000000000E+00  9.0000000000E+00
 -313 2 30 0 0 0 -2.3676519459E+00 -2.3759272227E-01  4.6417352748E+00  5.2934201489E+00  9.0131263915E-01  0.0000000000E+00  9.0000000000E+00
 111 2 30 0 0 0 -6.4517552158E-01  1.9318623209E-01  4.9751510655E-01  8.4812337284E-01  1.3498000000E-01  7.3782541789E-06  9.0000000000E+00
 331 2 30 0 0 0  7.6865048777E+00  1.1707235925E+01 -8.4876596939E+00  1.6404279569E+01  9.5827493921E-01  0.0000000000E+00  9.0000000000E+00
 111 2 30 0 0 0  2.8982664407E+00  4.1069723025E+00 -4.1727644750E+00  6.5343211445E+00  1.3498000000E-01  5.4960610386E-05  9.0000000000E+00
 111 2 30 0 0 0  5.3980746984E+00  8.4167828580E+00 -7.2608067626E+00  1.2357952038E+01  1.3498000000E-01  2.6173857802E-06  9.0000000000E+00
 -213 2 30 0 0 0  4.4125553426E+00  7.1117770256E+00 -5.5340580221E+00  1.0051424927E+01  5.9776898069E-01  0.0000000000E+00  9.0000000000E+00
 10223 2 30 0 0 0  4.0011617996E+00  7.1038273881E+00 -5.9896328993E+00  1.0197401805E+01  1.2797038735E+00  0.0000000000E+00  9.0000000000E+00
 3222 2 30 0 0 0 -1.5497401353E+00 -3.2427215267E+00 -3.4174476932E+00  5.1000477566E+00  1.1893700000E+00  1.9429119544E+01  9.0000000000E+00
 -3222 2 30 0 0 0 -1.2062350470E+00 -5.4471062361E-01 -1.3384951809E+00  2.2266304135E+00  1.1893700000E+00  4.3646005832E+01  9.0000000000E+00
 111 2 30 0 0 0 -2.6713147562E+00 -3.0797397314E+00 -3.2232297642E+00  5.1988603609E+00  1.3498000000E-01  4.5197880536E-05  9.0000000000E+00
 10213 2 30 0 0 0 -2.6166142163E+00 -1.6890424211E+00 -3.1991791898E-01  3.4066374853E+00  1.3428690271E+00  0.0000000000E+00  9.0000000000E+00
 -213 2 30 0 0 0 -1.7951752188E+00 -1.3589046519E-01  1.4045976893E-01  1.8836315097E+00  5.3592763788E-01  0.0000000000E+00  9.0000000000E+00
 10213 2 30 0 0 0 -1.1308055509E+00 -5.2590161137E-01 -2.0516412606E-01  1.7494109689E+00  1.2095671626E+00  0.0000000000E+00  9.0000000000E+00
 10513 2 30 0 0 0 -6.1720228187E+01 -1.8012310026E+01  4.0576855578E+00  6.4678748650E+01  5.7485506833E+00  0.0000000000E+00  9.0000000000E+00
 92 2 26 29 0 0  3.0703399654E+01  2.5728580730E+01  4.4760217171E+01  9.9135975643E+01  7.8865746740E+01  0.0000000000E+00  9.0000000000E+00
 -311 2 46 0 0 0  1.2847277124E+00  5.2512611667E+00  9.1583075634E-01  5.5056961902E+00  4.9767000000E-01  0.0000000000E+00  9.0000000000E+00
 -215 2 46 0 0 0  6.5834256007E+00  2.6707600831E+01  4.8019916576E+00  2.7954067589E+01  1.3165622215E+00  0.0000000000E+00  9.0000000000E+00
 211 1 46 0 0 0  1.0048694936E+00  3.1862277693E+00  6.9728520867E-01  3.4157717348E+00  1.3957000000E-01  0.0000000000E+00  9.0000000000E+00
 223 2 46 0 0 0  1.4470463666E+00  6.3926679902E+00  1.0531485168E+00  6.6846805348E+00  7.8465586952E-01  0.0000000000E+00  9.0000000000E+00
 -10213 2 46 0 0 0  8.9688895115E-02  3.6442539720E+00  1.7868111351E+00  4.2449066400E+00  1.2401238806E+00  0.0000000000E+00  9.0000000000E+00
 3122 2 46 0 0 0  6.2330707750E-01  4.0401527712E-01  1.3995256580E-01  1.3476159097E+00  1.1156800000E+00  4.7092166325E+01  9.0000000000E+00
 -3122 2 46 0 0 0  2.0189575875E-01  2.6260023523E+00  9.9359069095E-01  3.0279720236E+00  1.1156800000E+00  1.1319851143E+01  9.0000000000E+00
 323 2 46 0 0 0  1.4817754620E+00 -2.5755868203E+00  5.8712825459E+00  6.6379257633E+00  8.7223489799E-01  0.0000000000E+00  9.0000000000E+00
 -323 2 46 0 0 0  3.5941690944E-01 -6.0010787832E-01  1.6707624776E+00  2.0147828889E+00  8.8237908655E-01  0.0000000000E+00  9.0000000000E+00
 111 2 46 0 0 0  5.6166266657E-01 -1.5329818658E-01  8.8677018478E-01  1.0693672176E+00  1.3498000000E-01  3.1226525817E-06  9.0000000000E+00
 215 2 46 0 0 0  1.4881266517E+00 -3.6261524203E+00  6.1005957969E+00  7.3857519718E+00  1.4030540989E+00  0.0000000000E+00  9.0000000000E+00
 -213 2 46 0 0 0  2.6291584644E+00 -3.0847084191E+00  3.8505714812E+00  5.6427034312E+00  7.6504968415E-01  0.0000000000E+00  9.0000000000E+00
 211 1 46 0 0 0  4.0591070847E+00 -3.9171745273E+00  5.2015752131E+00  7.6744036306E+00  1.3957000000E-01  0.0000000000E+00  9.0000000000E+00
 -10211 2 46 0 0 0  2.6560040722E+00 -3.0217096727E+00  4.2863777442E+00  5.9590527068E+00  9.7580121884E-01  0.0000000000E+00  9.0000000000E+00
 221 2 46 0 0 0  6.2331874381E+00 -5.5047107045E+00  6.5036711959E+00  1.0571277411E+01  5.4745000000E-01  0.0000000000E+00  9.0000000000E+00
 -531 2 31 0 0 0 -1.5775691879E+01 -1.7356601723E+00  2.7828140446E+01  3.2482606941E+01  5.3693000000E+00  1.4934230404E+00  9.0000000000E+00
 22 1 31 0 0 0 -1.7571583245E-01  5.9869991328E-03  2.2449174376E-01  2.8514635006E-01 -3.7252902985E-09  0.0000000000E+00  9.0000000000E+00
 -321 1 32 0 0 0 -7.5078472813E-01  5.3112719041E-03  1.8042780201E+00  2.0156304352E+00  4.9360000000E-01  0.0000000000E+00  9.0000000000E+00
 211 1 32 0 0 0 -1.6168672178E+00 -2.4290399417E-01  2.8374572547E+00  3.2777897137E+00  1.3957000000E-01  0.0000000000E+00  9.0000000000E+00
 22 1 33 0 0 0 -6.1334684955E-01  2.1224040199E-01  4.6116929329E-01  7.9618933877E-01 -1.0536712128E-08  0.0000000000E+00  9.0000000000E+00
 22 1 33 0 0 0 -3.1828672021E-02 -1.9054169900E-02  3.6345813261E-02  5.1934034070E-02  0.0000000000E+00  0.0000000000E+00  9.0000000000E+00
 -211 1 34 0 0 0  1.6514435334E+00  2.5803155324E+00 -1.9353949664E+00  3.6263655982E+00  1.3957000000E-01  0.0000000000E+00  9.0000000000E+00
 211 1 34 0 0 0  2.1601591317E+00  3.4411039126E+00 -2.5570141035E+00  4.8026330822E+00  1.3957000000E-01  0.0000000000E+00  9.0000000000E+00
 221 2 34 0 0 0  3.8749022126E+00  5.6858164800E+00 -3.9952506239E+00  7.9752808886E+00  5.4745000000E-01  0.0000000000E+00  9.0000000000E+00
 22 1 35 0 0 0  2.3729862217E+00  3.3603210134E+00 -3.4815903826E+00  5.3892756947E+00  5.9604644775E-08  0.0000000000E+00  9.0000000000E+00
 22 1 35 0 0 0  5.2528021898E-01  7.4665128913E-01 -6.9117409249E-01  1.1450454498E+00 -2.5809568280E-08  0.0000000000E+00  9.0000000000E+00
 22 1 36 0 0 0  4.6002104035E+00  7.2250508267E+00 -6.1722156496E+00  1.0557440089E+01 -2.9200193200E-07  0.0000000000E+00  9.0000000000E+00
 22 1 36 0 0 0  7.9786429491E-01  1.1917320313E+00 -1.0885911131E+00  1.8005119491E+00 -6.3220272766E-08  0.0000000000E+00  9.0000000000E+00
 -211 1 37 0 0 0  2.6296613710E+00  4.7084244754E+00 -3.5062775804E+00  6.4341154965E+00  1.3957000000E-01  0.0000000000E+00  9.0000000000E+00
 111 2 37 0 0 0  1.7828939716E+00  2.4033525502E+00 -2.0277804417E+00  3.6173094303E+00  1.3498000000E-01  3.4103032441E-06  9.0000000000E+00
 -213 2 38 0 0 0  2.2128310201E+00  4.1491556988E+00 -3.0252232339E+00  5.6437860752E+00  7.6696252250E-01  0.0000000000E+00  9.0000000000E+00
 211 1 38 0 0 0  1.7883307795E+00  2.9546716893E+00 -2.9644096654E+00  4.5536157301E+00  1.3957000000E-01  0.0000000000E+00  9.0000000000E+00
 2212 1 39 0 0 0 -1.5041550892E+00 -3.1233359679E+00 -3.1680985890E+00  4.7890405473E+00  9.3827000000E-01  0.0000000000E+00  9.0000000000E+00
 111 2 39 0 0 0 -4.5585046052E-02 -1.1938555882E-01 -2.4934910423E-01  3.1100720933E-01  1.3498000000E-01  1.5753873889E-05  9.0000000000E+00
 -2212 1 40 0 0 0 -9.8127220659E-01 -5.8403434606E-01 -9.5260436171E-01  1.7583506259E+00  9.3827000000E-01  0.0000000000E+00  9.0000000000E+00
 111 2 40 0 0 0 -2.2496284043E-01  3.9323722448E-02 -3.8589081922E-01  4.6827978760E-01  1.3498000000E-01  9.3150758250E-05  9.0000000000E+00
 22 1 41 0 0 0 -6.3560463719E-01 -6.7422203028E-01 -7.8587696245E-01  1.2149778603E+00  0.0000000000E+00  0.0000000000E+00  9.0000000000E+00
 22 1 41 0 0 0 -2.0357101190E+00 -2.4055177011E+00 -2.4373528018E+00  3.9838825006E+00 -5.9604644775E-08  0.0000000000E+00  9.0000000000E+00
 223 2 42 0 0 0 -2.5195552031E+00 -1.3684513790E+00 -8.2302747499E-02  2.9728866087E+00  7.8132160335E-01  0.0000000000E+00  9.0000000000E+00
 211 1 42 0 0 0 -9.7059013226E-02 -3.2059104203E-01 -2.3761517149E-01  4.3375087654E-01  1.3957000000E-01  0.0000000000E+00  9.0000000000E+00
 -211 1 43 0 0 0 -1.2739110788E+00 -2.6643850196E-01  2.0840274233E-01  1.3254246112E+00  1.3957000000E-01  0.0000000000E+00  9.0000000000E+00
 111 2 43 0 0 0 -5.2126414000E-01  1.3054803677E-01 -6.7942973400E-02  5.5820689855E-01  1.3498000000E-01  2.6778546605E-07  9.0000000000E+00
 223 2 44 0 0 0 -7.9424149928E-01 -2.5351695264E-01 -4.4942059765E-01  1.2330682804E+00  7.8954930571E-01  0.0000000000E+00  9.0000000000E+00
 211 1 44 0 0 0 -3.3656405159E-01 -2.7238465873E-01  2.4425647159E-01  5.1634268848E-01  1.3957000000E-01  0.0000000000E+00  9.0000000000E+00
 523 2 45 0 0 0 -5.8321092314E+01 -1.6681369688E+01  3.6389955202E+00  6.1001751506E+01  5.3248000000E+00  0.0000000000E+00  9.0000000000E+00
 -211 1 45 0 0 0 -3.3991358733E+00 -1.3309403387E+00  4.1869003762E-01  3.6769971448E+00  1.3957000000E-01  0.0000000000E+00  9.0000000000E+00
 130 1 47 0 0 0  1.2847277124E+00  5.2512611667E+00  9.1583075634E-01  5.5056961902E+00  4.9767000000E-01  0.0000000000E+00  9.0000000000E+00
 221 2 48 0 0 0  3.4884531926E+00  1.4050388878E+01  1.9913890574E+00  1.4623544891E+01  5.4745000000E-01  0.0000000000E+00  9.0000000000E+00
 -211 1 48 0 0 0  3.0949724081E+00  1.2657211953E+01  2.8106026002E+00  1.3330522698E+01  1.3957000000E-01  0.0000000000E+00  9.0000000000E+00
 -211 1 50 0 0 0  8.6395806135E-01  4.0237703108E+00  6.7737134133E-01  4.1731837684E+00  1.3957000000E-01  0.0000000000E+00  9.0000000000E+00
 211 1 50 0 0 0  9.4004340299E-02  8.1887390363E-01 -7.9121285675E-03  8.3602253123E-01  1.3957000000E-01  0.0000000000E+00  9.0000000000E+00
 111 2 50 0 0 0  4.8908396494E-01  1.5500237758E+00  3.8368930408E-01  1.6754742352E+00  1.3498000000E-01  7.4403465750E-06  9.0000000000E+00
 223 2 51 0 0 0  2.9972421249E-01  2.9869242637E+00  1.6996806025E+00  3.5354923079E+00  7.7410628983E-01  0.0000000000E+00  9.0000000000E+00
 -211 1 51 0 0 0 -2.1003531738E-01  6.5732970828E-01  8.7130532612E-02  7.0941433207E-01  1.3957000000E-01  0.0000000000E+00  9.0000000000E+00
 2212 1 52 0 0 0  5.3415044266E-01  3.6983420998E-01  2.2040230566E-02  1.1414597684E+00  9.3827000000E-01  0.0000000000E+00  9.0000000000E+00
 -211 1 52 0 0 0  8.9156634846E-02  3.4181067137E-02  1.1791233523E-01  2.0615614128E-01  1.3957000000E-01  0.0000000000E+00  9.0000000000E+00
 -2212 1 53 0 0 0  1.8714359894E-01  2.3961778975E+00  9.7444237415E-01  2.7580028601E+00  9.3827000000E-01  0.0000000000E+00  9.0000000000E+00
 211 1 53 0 0 0  1.4752159814E-02  2.2982445488E-01  1.9148316806E-02  2.6996916346E-01  1.3957000000E-01  0.0000000000E+00  9.0000000000E+00
 311 2 54 0 0 0  4.3260902809E-01 -9.8616555264E-01  2.1727213142E+00  2.4754931643E+00  4.9767000000E-01  0.0000000000E+00  9.0000000000E+00
 211 1 54 0 0 0  1.0491664339E+00 -1.5894212677E+00  3.6985612317E+00  4.1624325990E+00  1.3957000000E-01  0.0000000000E+00  9.0000000000E+00
 -321 1 55 0 0 0  3.3102216245E-01 -3.8408564516E-01  1.5990627104E+00  1.7486394616E+00  4.9360000000E-01  0.0000000000E+00  9.0000000000E+00
 111 2 55 0 0 0  2.8394746996E-02 -2.1602223317E-01  7.1699767206E-02  2.6614342730E-01  1.3498000000E-01  1.0646983961E-05  9.0000000000E+00
 22 1 56 0 0 0  4.5075592690E-01 -7.0345689821E-02  6.3306427151E-01  7.8032031472E-01  2.1073424255E-08  0.0000000000E+00  9.0000000000E+00
 22 1 56 0 0 0  1.1090673967E-01 -8.2952496756E-02  2.5370591328E-01  2.8904690286E-01  6.4523920699E-09  0.0000000000E+00  9.0000000000E+00
 223 2 57 0 0 0  6.5701671002E-01 -2.1543181678E+00  3.7528639275E+00  4.4442979150E+00  7.7138743439E-01  0.0000000000E+00  9.0000000000E+00
 211 1 57 0 0 0  4.7638574668E-01 -7.8011715139E-01  8.8733108003E-01  1.2815468700E+00  1.3957000000E-01  0.0000000000E+00  9.0000000000E+00
 111 2 57 0 0 0  3.5472419502E-01 -6.9171710107E-01  1.4604007894E+00  1.6599071867E+00  1.3498000000E-01  6.1724338546E-06  9.0000000000E+00
 -211 1 58 0 0 0  3.0216815460E-01 -1.7210888254E-01  2.0686465805E-01  4.2801849581E-01  1.3957000000E-01  0.0000000000E+00  9.0000000000E+00
 111 2 58 0 0 0  2.3269903098E+00 -2.9125995365E+00  3.6437068232E+00  5.2146849354E+00  1.3498000000E-01  6.7028204083E-06  9.0000000000E+00
 221 2 60 0 0 0  2.3435767763E+00 -2.6613594012E+00  4.0433258758E+00  5.4058645570E+00  5.4745000000E-01  0.0000000000E+00  9.0000000000E+00
 -211 1 60 0 0 0  3.1242729589E-01 -3.6035027150E-01  2.4305186844E-01  5.5318814977E-01  1.3957000000E-01  0.0000000000E+00  9.0000000000E+00
 -211 1 61 0 0 0  4.2656713556E+00 -3.7129195135E+00  4.3512458699E+00  7.1368441088E+00  1.3957000000E-01  0.0000000000E+00  9.0000000000E+00
 211 1 61 0 0 0  8.4031800336E-01 -7.3575177945E-01  8.8511843149E-01  1.4319146100E+00  1.3957000000E-01  0.0000000000E+00  9.0000000000E+00
 111 2 61 0 0 0  1.1271980792E+00 -1.0560394116E+00  1.2673068944E+00  2.0025186925E+00  1.3498000000E-01  2.2815364952E-05  9.0000000000E+00
 -14 1 62 0 0 0 -6.7233497679E+00 -1.1156244236E+00  1.0119969744E+01  1.2200894950E+01 -1.6858739404E-07  0.0000000000E+00  9.0000000000E+00
 13 1 62 0 0 0 -3.1124724392E+00 -1.2319690032E+00  6.8148850207E+00  7.5933559241E+00  1.0566000000E-01  0.0000000000E+00  9.0000000000E+00
 20433 2 62 0 0 0 -5.9398696720E+00  6.1193325451E-01  1.0893285681E+01  1.2688356067E+01  2.5834458998E+00  0.0000000000E+00  9.0000000000E+00
 111 2 70 0 0 0  1.4769678533E+00  2.2265786563E+00 -1.5023862701E+00  3.0683009399E+00  1.3498000000E-01  1.6796375879E-05  9.0000000000E+00
 111 2 70 0 0 0  4.8356317585E-01  7.7370846563E-01 -4.6311954829E-01  1.0320646546E+00  1.3498000000E-01  5.0260627737E-06  9.0000000000E+00
 111 2 70 0 0 0  1.9143711834E+00  2.6855293580E+00 -2.0297448055E+00  3.8749152941E+00  1.3498000000E-01  9.4087250993E-05  9.0000000000E+00
 22 1 76 0 0 0  8.5462386334E-03  2.7993446685E-02 -9.9778791098E-03  3.0922957873E-02  3.2927225399E-09  0.0000000000E+00  9.0000000000E+00
 22 1 76 0 0 0  1.7743477330E+00  2.3753591035E+00 -2.0178025626E+00  3.5863864724E+00  5.9604644775E-08  0.0000000000E+00  9.0000000000E+00
 -211 1 77 0 0 0  1.8959250899E+00  2.9725729342E+00 -2.0817976466E+00  4.0968381737E+00  1.3957000000E-01  0.0000000000E+00  9.0000000000E+00
 111 2 77 0 0 0  3.1690593025E-01  1.1765827646E+00 -9.4342558727E-01  1.5469479014E+00  1.3498000000E-01  1.4996677856E-06  9.0000000000E+00
 22 1 80 0 0 0 -1.6170878938E-02 -8.8151413217E-02 -4.1479069903E-02  9.8755669295E-02  2.9451005721E-09  0.0000000000E+00  9.0000000000E+00
 22 1 80 0 0 0 -2.9414167114E-02 -3.1234145598E-02 -2.0787003432E-01  2.1225154004E-01  6.9693799816E-09  0.0000000000E+00  9.0000000000E+00
 22 1 82 0 0 0 -2.7449278098E-02  6.0682797521E-02 -9.8988008411E-02  1.1930838442E-01  2.6341780319E-09  0.0000000000E+00  9.0000000000E+00
 22 1 82 0 0 0 -1.9751356233E-01 -2.1359075074E-02 -2.8690281081E-01  3.4897140319E-01  5.2683560639E-09  0.0000000000E+00  9.0000000000E+00
 211 1 85 0 0 0 -5.4010020514E-01 -4.6661902626E-01 -1.8873739573E-02  7.2751463917E-01  1.3957000000E-01  0.0000000000E+00  9.0000000000E+00
 -211 1 85 0 0 0 -1.7000486039E+00 -6.4697237160E-01  5.9861457251E-02  1.8253223508E+00  1.3957000000E-01  0.0000000000E+00  9.0000000000E+00
 111 2 85 0 0 0 -2.7940639405E-01 -2.5485998117E-01 -1.2329046518E-01  4.2004961878E-01  1.3498000000E-01  1.2940024748E-05  9.0000000000E+00
 22 1 88 0 0 0 -2.9368702996E-01  1.3156012906E-02 -2.8627087789E-03  2.9399548864E-01  3.7252902985E-09  0.0000000000E+00  9.0000000000E+00
 22 1 88 0 0 0 -2.2757711005E-01  1.1739202386E-01 -6.5080264621E-02  2.6421140991E-01  5.2683560639E-09  0.0000000000E+00  9.0000000000E+00
 -211 1 89 0 0 0 -5.1379553809E-01  9.0304284671E-02 -1.1409388022E-01  5.5194013914E-01  1.3957000000E-01  0.0000000000E+00  9.0000000000E+00
 211 1 89 0 0 0 -2.2465394297E-01 -2.8426324117E-01 -3.4996977122E-01  5.2271752414E-01  1.3957000000E-01  0.0000000000E+00  9.0000000000E+00
 111 2 89 0 0 0 -5.5792018224E-02 -5.9557996136E-02  1.4643053790E-02  1.5841061715E-01  1.3498000000E-01  1.2323739949E-05  9.0000000000E+00
 521 2 91 0 0 0 -5.7354841819E+01 -1.6419689803E+01  3.5903676779E+00  5.9999513487E+01  5.2789000000E+00  4.6042632702E-01  9.0000000000E+00
 22 1 91 0 0 0 -9.6625049404E-01 -2.6167988428E-01  4.8627842353E-02  1.0022380187E+00 -1.4901161194E-08  0.0000000000E+00  9.0000000000E+00
 -211 1 94 0 0 0  7.7301815428E-01  3.5259020937E+00  4.4577777022E-01  3.6397445304E+00  1.3957000000E-01  0.0000000000E+00  9.0000000000E+00
 211 1 94 0 0 0  1.7367178039E+00  6.7728150943E+00  9.0388911000E-01  7.0515039772E+00  1.3957000000E-01  0.0000000000E+00  9.0000000000E+00
 111 2 94 0 0 0  9.7871723442E-01  3.7516716904E+00  6.4172217714E-01  3.9322963838E+00  1.3498000000E-01  2.5727931471E-06  9.0000000000E+00
 22 1 98 0 0 0  4.3673565588E-02  2.8817881081E-01  4.2876222796E-02  2.9460614015E-01  5.2683560639E-09  0.0000000000E+00  9.0000000000E+00
 22 1 98 0 0 0  4.4541039935E-01  1.2618449650E+00  3.4081308129E-01  1.3808680950E+00 -1.4901161194E-08  0.0000000000E+00  9.0000000000E+00
 211 1 99 0 0 0  3.1424699737E-01  7.3853935692E-01  5.5049610874E-01  9.8321783330E-01  1.3957000000E-01  0.0000000000E+00  9.0000000000E+00
 -211 1 99 0 0 0  6.1310145265E-02  1.7122828459E+00  8.2279493487E-01  1.9058181361E+00  1.3957000000E-01  0.0000000000E+00  9.0000000000E+00
 111 2 99 0 0 0 -7.5832930144E-02  5.3610206091E-01  3.2638955884E-01  6.4645633846E-01  1.3498000000E-01  1.3295578501E-05  9.0000000000E+00
 130 1 105 0 0 0  4.3260902809E-01 -9.8616555264E-01  2.1727213142E+00  2.4754931643E+00  4.9767000000E-01  0.0000000000E+00  9.0000000000E+00
 22 1 108 0 0 0  1.2918308079E-02 -2.0752656525E-01  1.6950560653E-02  2.0861802289E-01  4.5625301875E-09  0.0000000000E+00  9.0000000000E+00
 22 1 108 0 0 0  1.5476438917E-02 -8.4956679184E-03  5.4749206553E-02  5.7525404415E-02  2.3744159907E-09  0.0000000000E+00  9.0000000000E+00
 -211 1 111 0 0 0  1.7831916889E-01 -3.4507676087E-01  5.0567230590E-01  6.5273268858E-01  1.3957000000E-01  0.0000000000E+00  9.0000000000E+00
 211 1 111 0 0 0 -3.1443400381E-02 -1.9155029394E-01  2.5617903333E-01  3.5041073693E-01  1.3957000000E-01  0.0000000000E+00  9.0000000000E+00
 111 2 111 0 0 0  5.1014094151E-01 -1.6176911130E+00  2.9910125882E+00  3.4411544895E+00  1.3498000000E-01  4.0864976873E-05  9.0000000000E+00
 22 1 113 0 0 0  2.1414869456E-01 -4.2168253718E-01  7.4520023489E-01  8.8260932220E-01 -1.4901161194E-08  0.0000000000E+00  9.0000000000E+00
 22 1 113 0 0 0  1.4057550045E-01 -2.7003456389E-01  7.1520055452E-01  7.7729786453E-01  1.8250120750E-08  0.0000000000E+00  9.0000000000E+00
 22 1 115 0 0 0  2.1637091605E+00 -2.7569759904E+00  3.4375202226E+00  4.9090833384E+00  1.0323827312E-07  0.0000000000E+00  9.0000000000E+00
 22 1 115 0 0 0  1.6328114935E-01 -1.5562354615E-01  2.0618660057E-01  3.0560159703E-01  0.0000000000E+00  0.0000000000E+00  9.0000000000E+00
 22 1 116 0 0 0  2.2484700111E+00 -2.4204041860E+00  3.5547127358E+00  4.8528297362E+00  1.4600096600E-07  0.0000000000E+00  9.0000000000E+00
 22 1 116 0 0 0  9.5106765225E-02 -2.4095521519E-01  4.8861313993E-01  5.5303482082E-01  1.8250120750E-08  0.0000000000E+00  9.0000000000E+00
 22 1 120 0 0 0  1.0471642745E+00 -1.0183458368E+00  1.2133686377E+00  1.8989061883E+00  3.6500241500E-08  0.0000000000E+00  9.0000000000E+00
 22 1 120 0 0 0  8.0033804712E-02 -3.7693574848E-02  5.3938256739E-02  1.0361250418E-01  1.3170890160E-09  0.0000000000E+00  9.0000000000E+00
 413 2 123 0 0 0 -4.9410081614E+00  3.0810118566E-01  9.1652193734E+00  1.0608950662E+01  2.0100000000E+00  0.0000000000E+00  9.0000000000E+00
 311 2 123 0 0 0 -9.9886151058E-01  3.0383206884E-01  1.7280663080E+00  2.0794054047E+00  4.9767000000E-01  0.0000000000E+00  9.0000000000E+00
 22 1 124 0 0 0  9.5900282177E-01  1.5488408449E+00 -1.0536392573E+00  2.1044595647E+00 -6.6640018746E-08  0.0000000000E+00  9.0000000000E+00
 22 1 124 0 0 0  5.1796503157E-01  6.7773781148E-01 -4.4874701286E-01  9.6384137522E-01 -3.1610136383E-08  0.0000000000E+00  9.0000000000E+00
 22 1 125 0 0 0  2.6765534410E-01  5.2784413722E-01 -3.3945389369E-01  6.8226663582E-01 -1.4901161194E-08  0.0000000000E+00  9.0000000000E+00
 22 1 125 0 0 0  2.1590783175E-01  2.4586432841E-01 -1.2366565460E-01  3.4979801875E-01 -9.8561916913E-09  0.0000000000E+00  9.0000000000E+00
 22 1 126 0 0 0  1.2907499237E+00  1.9156412299E+00 -1.4330674928E+00  2.7183449240E+00 -8.4293697022E-08  0.0000000000E+00  9.0000000000E+00
 22 1 126 0 0 0  6.2362125973E-01  7.6988812807E-01 -5.9667731271E-01  1.1565703700E+00 -3.3320009373E-08  0.0000000000E+00  9.0000000000E+00
 22 1 130 0 0 0  3.2856943006E-01  1.0876572633E+00 -8.7888857308E-01  1.4364544256E+00 -6.3220272766E-08  0.0000000000E+00  9.0000000000E+00
 22 1 130 0 0 0 -1.1663499815E-02  8.8925501290E-02 -6.4537014197E-02  1.1049347587E-01 -7.0927414166E-09  0.0000000000E+00  9.0000000000E+00
 22 1 137 0 0 0 -1.3567141350E-02 -8.3851024457E-02 -1.7515887543E-02  8.6728703111E-02 -4.4664661617E-09  0.0000000000E+00  9.0000000000E+00
 22 1 137 0 0 0 -2.6583925270E-01 -1.7100895671E-01 -1.0577457763E-01  3.3332091567E-01 -9.1250603750E-09  0.0000000000E+00  9.0000000000E+00
 22 1 142 0 0 0 -2.8393227353E-02  4.2314784303E-03  6.6054249377E-02  7.2022528628E-02  2.6341780319E-09  0.0000000000E+00  9.0000000000E+00
 22 1 142 0 0 0 -2.7398790871E-02 -6.3789474566E-02 -5.1411195587E-02  8.6388088521E-02  3.0888475388E-09  0.0000000000E+00  9.0000000000E+00
 -421 2 143 0 0 0 -2.5751403426E+01 -5.8703566081E+00  9.8311021643E-01  2.6496013493E+01  1.8645000000E+00  8.4337092476E-03  9.0000000000E+00
 211 1 143 0 0 0 -1.5408173885E+01 -4.3888991276E+00  4.8297080942E-01  1.6028942530E+01  1.3957000000E-01  0.0000000000E+00  9.0000000000E+00
 223 2 143 0 0 0 -1.6195264508E+01 -6.1604340678E+00  2.1242866520E+00  1.7474557464E+01  7.8104056675E-01  0.0000000000E+00  9.0000000000E+00
 22 1 147 0 0 0  5.2180256158E-01  2.0926252654E+00  4.2061981558E-01  2.1973346227E+00  2.9802322388E-08  0.0000000000E+00  9.0000000000E+00
 22 1 147 0 0 0  4.5691467284E-01  1.6590464250E+00  2.2110236156E-01  1.7349617612E+00  2.9802322388E-08  0.0000000000E+00  9.0000000000E+00
 22 1 152 0 0 0 -1.7436780369E-02  4.5331230808E-01  2.3950327486E-01  5.1298918959E-01  0.0000000000E+00  0.0000000000E+00  9.0000000000E+00
 22 1 152 0 0 0 -5.8396149775E-02  8.2789752832E-02  8.6886283979E-02  1.3346714886E-01 -2.6341780319E-09  0.0000000000E+00  9.0000000000E+00
 22 1 158 0 0 0  2.3590655743E-01 -8.0614470823E-01  1.6127246820E+00  1.8183514772E+00  2.1073424255E-08  0.0000000000E+00  9.0000000000E+00
 22 1 158 0 0 0  2.7423438409E-01 -8.1154640479E-01  1.3782879062E+00  1.6228030124E+00  2.9802322388E-08  0.0000000000E+00  9.0000000000E+00
 411 2 167 0 0 0 -4.5524007008E+00  2.8914432779E-01  8.3884087804E+00  9.7297297465E+00  1.8693000000E+00  3.6389021975E-01  9.0000000000E+00
 111 2 167 0 0 0 -3.8860746061E-01  1.8956857869E-02  7.7681059305E-01  8.7922091580E-01  1.3498000000E-01  1.5884062753E-05  9.0000000000E+00
 310 2 168 0 0 0 -9.9886151058E-01  3.0383206884E-01  1.7280663080E+00  2.0794054047E+00  4.9767000000E-01  2.4456543344E+01  9.0000000000E+00
 321 1 181 0 0 0 -1.4532391241E+01 -3.1086115589E+00  1.0416567706E+00  1.4905789170E+01  4.9360000000E-01  0.0000000000E+00  9.0000000000E+00
 -211 1 181 0 0 0 -5.8008215458E+00 -1.2921737350E+00  8.3049045460E-02  5.9452182884E+00  1.3957000000E-01  0.0000000000E+00  9.0000000000E+00
 -211 1 181 0 0 0 -3.1976489038E+00 -8.5716932334E-01 -3.2880881911E-01  3.3297586677E+00  1.3957000000E-01  0.0000000000E+00  9.0000000000E+00
 211 1 181 0 0 0 -2.2205417351E+00 -6.1240199088E-01  1.8721321948E-01  2.3152473670E+00  1.3957000000E-01  0.0000000000E+00  9.0000000000E+00
 211 1 183 0 0 0 -7.9113324432E+00 -3.1350916252E+00  1.1668685814E+00  8.5906369145E+00  1.3957000000E-01  0.0000000000E+00  9.0000000000E+00
 -211 1 183 0 0 0 -4.9810065392E+00 -1.6870050621E+00  7.1811558486E-01  5.3095745593E+00  1.3957000000E-01  0.0000000000E+00  9.0000000000E+00
 111 2 183 0 0 0 -3.3029255261E+00 -1.3383373804E+00  2.3930248572E-01  3.5743459898E+00  1.3498000000E-01  7.7052482159E-05  9.0000000000E+00
 -311 2 190 0 0 0 -1.9139272667E+00 -5.8942096865E-01  4.1771250114E+00  4.6590324586E+00  4.9767000000E-01  0.0000000000E+00  9.0000000000E+00
 321 1 190 0 0 0 -2.6384734341E+00  8.7856529644E-01  4.2112837690E+00  5.0706972879E+00  4.9360000000E-01  0.0000000000E+00  9.0000000000E+00
 22 1 191 0 0 0 -1.0307161161E-01  6.2818134024E-02  1.9332359720E-01  2.2791201881E-01 -6.9693799816E-09  0.0000000000E+00  9.0000000000E+00
 -11 1 191 0 0 0 -2.8213084703E-01 -4.2758827345E-02  5.7937157597E-01  6.4583110432E-01  5.0999999977E-04  0.0000000000E+00  9.0000000000E+00
 11 1 191 0 0 0 -3.4050019676E-03 -1.1024488097E-03  4.1154198783E-03  5.4777926715E-03  5.1000000000E-04  0.0000000000E+00  9.0000000000E+00
 111 2 192 0 0 0 -3.3291561883E-01  3.0233806186E-01  5.9139527965E-01  7.5512190413E-01  1.3498000000E-01  1.0163278132E-05  9.0000000000E+00
 111 2 192 0 0 0 -6.6594589175E-01  1.4940069810E-03  1.1366710283E+00  1.3242835006E+00  1.3498000000E-01  5.1339132723E-05  9.0000000000E+00
 22 1 199 0 0 0 -2.1704729349E+00 -8.8952163200E-01  2.2094283767E-01  2.3560596836E+00 -6.6640018746E-08  0.0000000000E+00  9.0000000000E+00
 22 1 199 0 0 0 -1.1324525912E+00 -4.4881574843E-01  1.8359648058E-02  1.2182863062E+00 -2.1073424255E-08  0.0000000000E+00  9.0000000000E+00
 310 2 200 0 0 0 -1.9139272667E+00 -5.8942096865E-01  4.1771250114E+00  4.6590324586E+00  4.9767000000E-01  3.1467545203E+01  9.0000000000E+00
 22 1 205 0 0 0 -2.6978291535E-01  2.4338273892E-01  3.7513795646E-01  5.2225134313E-01 -1.4901161194E-08  0.0000000000E+00  9.0000000000E+00
 22 1 205 0 0 0 -6.3132703477E-02  5.8955322946E-02  2.1625732318E-01  2.3287056101E-01 -7.9025340958E-09  0.0000000000E+00  9.0000000000E+00
 22 1 206 0 0 0 -5.8728893091E-01 -1.5657422854E-02  9.0450651972E-01  1.0785571322E+00 -3.3320009373E-08  0.0000000000E+00  9.0000000000E+00
 22 1 206 0 0 0 -7.8656960846E-02  1.7151429835E-02  2.3216450862E-01  2.4572636834E-01 -7.9025340958E-09  0.0000000000E+00  9.0000000000E+00
 -211 1 209 0 0 0 -1.7051881103E+00 -5.4748519914E-01  3.8104066292E+00  4.2126102359E+00  1.3957000000E-01  0.0000000000E+00  9.0000000000E+00
 211 1 209 0 0 0 -2.0873915643E-01 -4.1935769508E-02  3.6671838217E-01  4.4642222269E-01  1.3957000000E-01  0.0000000000E+00  9.0000000000E+00
<weights>1.8920987208E+14</weights>
</event>
<event>
 294 1  1.0000000000E+00  3.6440083737E+02 -1.0000000000E+00  1.1780000000E-01
 11 -9 0 0 0 0  0.0000000000E+00  0.0000000000E+00  1.8250000000E+02  1.8250000000E+02  5.1099700000E-04  0.0000000000E+00  9.0000000000E+00
 -11 -9 0 0 0 0  0.0000000000E+00  0.0000000000E+00 -1.8250000000E+02  1.8250000000E+02  5.1099700000E-04  0.0000000000E+00  9.0000000000E+00
 11 2 1 2 0 0  0.0000000000E+00  0.0000000000E+00  1.8186373831E+02  1.8186373831E+02  5.1099859771E-04  0.0000000000E+00  9.0000000000E+00
 -11 2 1 2 0 0  0.0000000000E+00  0.0000000000E+00 -1.8254350362E+02  1.8254350362E+02  5.1099859771E-04  0.0000000000E+00  9.0000000000E+00
 11 -1 3 0 0 0  0.0000000000E+00  0.0000000000E+00  1.8185797857E+02  1.8185797857E+02  5.1099700000E-04  0.0000000000E+00  9.0000000000E+00
 -11 -1 4 0 0 0  0.0000000000E+00  0.0000000000E+00 -1.8254350362E+02  1.8254350362E+02  5.1099700000E-04  0.0000000000E+00  9.0000000000E+00
 22 1 3 0 0 0  0.0000000000E+00  0.0000000000E+00  5.7597435548E-03  5.7597435548E-03  0.0000000000E+00  0.0000000000E+00  9.0000000000E+00
 22 1 4 0 0 0  0.0000000000E+00  0.0000000000E+00 -1.0895871391E-15  1.0895871391E-15  0.0000000000E+00  0.0000000000E+00  9.0000000000E+00
 6 2 5 6 501 0 -2.8356653574E+01 -4.9039878459E+01 -5.2796820036E+00  1.8221002860E+02  1.7310000000E+02  0.0000000000E+00  9.0000000000E+00
 -6 2 5 6 0 501  2.8356653574E+01  4.9039878459E+01  4.5941569529E+00  1.8219145358E+02  1.7310000000E+02  0.0000000000E+00  9.0000000000E+00
 24 2 9 0 0 0 -3.3703969362E+01 -2.6157116913E+01  6.2968195207E+01  1.0987036240E+02  7.9286509641E+01  0.0000000000E+00  9.0000000000E+00
 5 2 9 0 1000 0  5.3473157881E+00 -2.2882761546E+01 -6.8247877210E+01  7.2339666199E+01  4.8000000000E+00  0.0000000000E+00  9.0000000000E+00
 -3 2 11 0 1001 1000  7.0873920849E+00  2.3532952076E+01  2.5617085824E+01  3.5503746930E+01  5.0000000000E-01  0.0000000000E+00  9.0000000000E+00
 4 2 11 0 1002 1001 -4.0791361447E+01 -4.9690068988E+01  3.7351109382E+01  7.4366615473E+01  1.5000000000E+00  0.0000000000E+00  9.0000000000E+00
 -24 2 10 0 0 0  1.4354987747E+01  4.6747634232E+01 -6.3067259612E+01  1.1289204290E+02  7.9848150486E+01  0.0000000000E+00  9.0000000000E+00
 -5 2 10 0 1003 1002  1.4001665827E+01  2.2922442269E+00  6.7661416565E+01  6.9299410683E+01  4.8000000000E+00  0.0000000000E+00  9.0000000000E+00
 3 2 15 0 1004 1003 -2.1514318685E+01 -8.0022152052E+00  1.9776344320E+00  2.3044791051E+01  5.0000000000E-01  0.0000000000E+00  9.0000000000E+00
 -4 2 15 0 1005 1004  3.5275994888E+01  5.0531154914E+01 -5.5617551828E+01  8.3026233828E+01  1.5000000000E+00  0.0000000000E+00  9.0000000000E+00
 5 2 12 0 1006 1005  5.3473157881E+00 -2.2882761546E+01 -6.8247877210E+01  7.2339666199E+01  4.8000000000E+00  0.0000000000E+00  9.0000000000E+00
 21 2 16 0 1007 1006 -2.5021113844E-01  1.0655700492E+00  1.3171470603E+00  1.7125774499E+00 -2.1073424255E-08  0.0000000000E+00  9.0000000000E+00
 21 2 16 0 1008 1007  8.5944898936E+00 -4.4900540911E+00  1.3945966065E+01  1.6985753200E+01 -2.3841857910E-07  0.0000000000E+00  9.0000000000E+00
 21 2 16 0 1009 1008  6.0989682141E+00 -7.2455712938E+00  1.1131494929E+01  1.4615262434E+01  0.0000000000E+00  0.0000000000E+00  9.0000000000E+00
 21 2 16 0 1010 1009  6.0439025797E-01 -7.9287189829E-01  3.8626553116E-01  1.0691746778E+00 -2.1073424255E-08  0.0000000000E+00  9.0000000000E+00
 21 2 16 0 1011 1010  1.7891254756E+00  4.2933363120E+00  7.8219468675E+00  9.1003604023E+00 -1.1920928955E-07  0.0000000000E+00  9.0000000000E+00
 21 2 16 0 1012 1011  1.9120613820E+00  5.1800498188E+00  3.0651643152E+00  6.3153881221E+00  0.0000000000E+00  0.0000000000E+00  9.0000000000E+00
 21 2 16 0 1013 1012 -2.3733460475E-01  2.5525950768E+00  4.0759884266E+00  4.8151584599E+00 -8.4293697022E-08  0.0000000000E+00  9.0000000000E+00
 21 2 16 0 1014 1013 -4.8694977995E+00  6.6020369594E+00  1.3306613327E+01  1.5632173843E+01 -2.3841857910E-07  0.0000000000E+00  9.0000000000E+00
 -5 2 16 0 0 1014  9.5298568965E-01 -6.5415218238E-01  3.1834878268E+00  5.8745801165E+00  4.8000000000E+00  0.0000000000E+00  9.0000000000E+00
 -3 2 13 0 0 1015  1.6241872910E+01 -1.0791671121E+01  1.7789210832E+01  2.6400087561E+01  5.0000000000E-01  0.0000000000E+00  9.0000000000E+00
 21 2 13 0 1015 1016 -1.1084347152E+01  1.2289212073E+01  1.2522070938E+01  2.0753065936E+01  0.0000000000E+00  0.0000000000E+00  9.0000000000E+00
 21 2 13 0 1016 1017 -1.4141140973E+01  2.3820456539E+00  9.8566992474E+00  1.7401164604E+01  0.0000000000E+00  0.0000000000E+00  9.0000000000E+00
 21 2 14 0 1017 1018 -1.0267237796E+01 -1.5012585308E+01  1.1209194428E+01  2.1364454810E+01 -3.3717478809E-07  0.0000000000E+00  9.0000000000E+00
 21 2 14 0 1018 1019 -6.3581925374E+00 -6.8357594036E+00  4.7477035973E+00  1.0473533712E+01 -1.1920928955E-07  0.0000000000E+00  9.0000000000E+00
 4 2 14 0 1019 0 -8.0949238134E+00 -8.1883588070E+00  6.8433161642E+00  1.3478055780E+01  1.5000000000E+00  0.0000000000E+00  9.0000000000E+00
 3 2 17 0 1020 0 -2.1454688229E+01 -7.9800276108E+00  1.9721416914E+00  2.2980944944E+01  5.0000000000E-01  0.0000000000E+00  9.0000000000E+00
 21 2 18 0 1021 1020  1.1148286193E+00  2.8168004909E+00 -2.8253287998E+00  4.1424257003E+00  0.0000000000E+00  0.0000000000E+00  9.0000000000E+00
 21 2 18 0 1022 1021  6.5218333506E+00  1.0236633671E+01 -1.1944262146E+01  1.7029045111E+01 -2.3841857910E-07  0.0000000000E+00  9.0000000000E+00
 -4 2 18 0 0 1022  2.7579702462E+01  3.7455533157E+01 -4.0842468142E+01  6.1918609125E+01  1.5000000000E+00  0.0000000000E+00  9.0000000000E+00
 92 2 19 28 0 0  1.9942293158E+01 -1.6371822796E+01 -1.0013802861E+01  1.4846009490E+02  1.4585743688E+02  0.0000000000E+00  9.0000000000E+00
 -523 2 39 0 0 0  3.4015995295E+00 -1.4731128542E+01 -4.4040771563E+01  4.6867046871E+01  5.3248000000E+00  0.0000000000E+00  9.0000000000E+00
 113 2 39 0 0 0  9.0416044505E-01 -4.3247981084E+00 -1.2155320268E+01  1.2955313567E+01  7.5296348967E-01  0.0000000000E+00  9.0000000000E+00
 223 2 39 0 0 0  9.0887941893E-01 -1.7273194993E+00 -6.9901400332E+00  7.3044795619E+00  8.2684311424E-01  0.0000000000E+00  9.0000000000E+00
 20113 2 39 0 0 0  2.5725069862E-01 -1.2425088622E+00 -2.1741341163E+00  2.8129486972E+00  1.2553147107E+00  0.0000000000E+00  9.0000000000E+00
 10323 2 39 0 0 0 -3.2698028808E-01 -5.1795523064E-01 -1.2223989130E+00  1.8803744252E+00  1.2908737919E+00  0.0000000000E+00  9.0000000000E+00
 10333 2 39 0 0 0  4.0100664832E-01  7.0389467208E-01  1.0123978161E+00  1.9078744283E+00  1.3995575925E+00  0.0000000000E+00  9.0000000000E+00
 -311 2 39 0 0 0  6.2539290965E-01 -1.9956314577E+00  5.8655293188E-01  2.2283134827E+00  4.9767000000E-01  0.0000000000E+00  9.0000000000E+00
 -211 1 39 0 0 0  3.1893575569E-01  5.9671433913E-01 -3.6502069509E-02  6.9180937024E-01  1.3957000000E-01  0.0000000000E+00  9.0000000000E+00
 213 2 39 0 0 0  5.0809501734E+00 -2.0656915393E+00  9.3234758368E+00  1.0840664910E+01  7.1391723076E-01  0.0000000000E+00  9.0000000000E+00
 3122 2 39 0 0 0  3.9837799497E+00 -4.1682020248E+00  6.7035160821E+00  8.9121423089E+00  1.1156800000E+00  7.4086579453E+01  9.0000000000E+00
 -20213 2 39 0 0 0  2.4095998736E+00 -1.7979086852E+00  3.3153961829E+00  4.6603968455E+00  1.2995382707E+00  0.0000000000E+00  9.0000000000E+00
 -3314 2 39 0 0 0  2.3290580956E+00 -1.6078831977E+00  5.5177242555E+00  6.3886734995E+00  1.5362513250E+00  0.0000000000E+00  9.0000000000E+00
 -311 2 39 0 0 0  2.4293194059E-01  1.6797500533E-01 -8.0226409436E-02  5.8424586934E-01  4.9767000000E-01  0.0000000000E+00  9.0000000000E+00
 111 2 39 0 0 0 -1.1604805713E-01 -2.9956299404E-01  1.9274110399E-01  3.9821335052E-01  1.3498000000E-01  3.5715478927E-05  9.0000000000E+00
 113 2 39 0 0 0  3.6483090009E-01  8.5264466055E-01  2.4461559234E+00  2.7136004777E+00  7.2100225226E-01  0.0000000000E+00  9.0000000000E+00
 -215 2 39 0 0 0  2.2051374963E+00  5.0541453608E+00  4.9306548995E+00  7.5482723348E+00  1.5026778754E+00  0.0000000000E+00  9.0000000000E+00
 10213 2 39 0 0 0  4.5796194133E-01  2.2188146808E+00  2.4640428250E+00  3.5501807890E+00  1.1829661296E+00  0.0000000000E+00  9.0000000000E+00
 -213 2 39 0 0 0 -5.5558217689E-01  1.4231294848E+00  3.0501289348E+00  3.4371528370E+00  4.2043313363E-01  0.0000000000E+00  9.0000000000E+00
 10113 2 39 0 0 0 -3.0826687007E-01  1.5605914581E+00  1.9428196251E+00  2.8498799202E+00  1.3478847508E+00  0.0000000000E+00  9.0000000000E+00
 2212 1 39 0 0 0 -1.0887538154E+00  2.0974998453E+00  4.1237105838E+00  4.8446083477E+00  9.3827000000E-01  0.0000000000E+00  9.0000000000E+00
 -2112 1 39 0 0 0 -2.5924581947E+00  3.6791050822E+00  6.6129543042E+00  8.0542293307E+00  9.3957000000E-01  0.0000000000E+00  9.0000000000E+00
 513 2 39 0 0 0  1.0389067843E+00 -2.4774724355E-01  4.4634192062E+00  7.0296736804E+00  5.3248000000E+00  0.0000000000E+00  9.0000000000E+00
 92 2 29 34 0 0 -3.3703969362E+01 -2.6157116913E+01  6.2968195207E+01  1.0987036240E+02  7.9286509641E+01  0.0000000000E+00  9.0000000000E+00
 10313 2 62 0 0 0  1.3645822152E+01 -9.7022594095E+00  1.4401115370E+01  2.2122285024E+01  1.2888254193E+00  0.0000000000E+00  9.0000000000E+00
 215 2 62 0 0 0  2.1535935499E+00 -5.7101289379E-01  3.0504703284E+00  4.0494360391E+00  1.4589524008E+00  0.0000000000E+00  9.0000000000E+00
 -211 1 62 0 0 0 -7.9863545590E-01  7.1390973547E-01  1.0342610198E+00  1.4955471721E+00  1.3957000000E-01  0.0000000000E+00  9.0000000000E+00
 213 2 62 0 0 0 -1.4477811777E+00  1.8548940413E+00  1.5974619591E+00  2.9321031694E+00  7.1319144883E-01  0.0000000000E+00  9.0000000000E+00
 -2212 1 62 0 0 0 -1.0700023643E+00  1.3020671469E+00  1.9690981845E+00  2.7564437538E+00  9.3827000000E-01  0.0000000000E+00  9.0000000000E+00
 2112 1 62 0 0 0 -5.6748989589E-01  1.0097028120E+00  7.6774329399E-01  1.6774284190E+00  9.3957000000E-01  0.0000000000E+00  9.0000000000E+00
 223 2 62 0 0 0 -5.1870298997E+00  3.3617176592E+00  4.9813992973E+00  7.9779003077E+00  7.9128348899E-01  0.0000000000E+00  9.0000000000E+00
 10211 2 62 0 0 0 -2.2085327968E+00  8.2211066932E-01  1.7497535171E+00  3.0919316905E+00  9.7207054294E-01  0.0000000000E+00  9.0000000000E+00
 111 2 62 0 0 0 -4.1221184062E+00  2.5539546874E+00  4.0100116083E+00  6.2938825378E+00  1.3498000000E-01  1.6049447109E-06  9.0000000000E+00
 -321 1 62 0 0 0 -1.3251617472E+00 -3.3779997338E-01  4.5363489906E-01  1.5230193892E+00  4.9360000000E-01  0.0000000000E+00  9.0000000000E+00
 20323 2 62 0 0 0 -1.9470378686E+00  7.4682057926E-01  2.5494005654E+00  3.5285963774E+00  1.2660378006E+00  0.0000000000E+00  9.0000000000E+00
 -213 2 62 0 0 0 -4.4761875156E+00  1.7187062301E+00  2.7994337293E+00  5.6089752983E+00  7.9597042170E-01  0.0000000000E+00  9.0000000000E+00
 111 2 62 0 0 0 -2.4206042888E+00 -2.0305539440E+00  1.6950592463E+00  3.5880245110E+00  1.3498000000E-01  1.0470691490E-05  9.0000000000E+00
 20213 2 62 0 0 0 -9.2642674791E-01 -1.3221758473E+00  1.6237296034E+00  2.5436556372E+00  1.1078224972E+00  0.0000000000E+00  9.0000000000E+00
 10221 2 62 0 0 0 -6.9863681487E+00 -7.4124636954E+00  5.8182849510E+00  1.1773121834E+01  1.0000000000E+00  0.0000000000E+00  9.0000000000E+00
 223 2 62 0 0 0 -2.0294928293E+00 -2.5749547410E+00  2.5611365577E+00  4.2346091597E+00  7.8946893926E-01  0.0000000000E+00  9.0000000000E+00
 10423 2 62 0 0 0 -1.3990515921E+01 -1.6289779969E+01  1.1906201076E+01  2.4673402083E+01  2.4346825420E+00  0.0000000000E+00  9.0000000000E+00
 92 2 35 38 0 0  1.3761676204E+01  4.2528939709E+01 -5.3639917396E+01  1.0607102488E+02  7.9848150486E+01  0.0000000000E+00  9.0000000000E+00
 3224 2 80 0 0 0 -1.7926927671E+01 -6.5971396520E+00  1.4134365545E+00  1.9203500875E+01  1.3710053489E+00  0.0000000000E+00  9.0000000000E+00
 115 2 80 0 0 0 -2.1528487184E+00 -7.4433001656E-01  2.7348774082E-01  2.6478412999E+00  1.3219240625E+00  0.0000000000E+00  9.0000000000E+00
 -2224 2 80 0 0 0 -1.3739450859E+00  1.2090607023E+00 -4.3571749036E-01  2.3191166381E+00  1.3560602380E+00  0.0000000000E+00  9.0000000000E+00
 323 2 80 0 0 0  2.3084310841E+00  2.9898495531E+00 -4.4700979126E+00  5.9232180020E+00  9.1360917776E-01  0.0000000000E+00  9.0000000000E+00
 -10313 2 80 0 0 0  2.2470587619E+00  1.6464583378E+00 -2.6717362508E+00  4.0712393064E+00  1.2948809824E+00  0.0000000000E+00  9.0000000000E+00
 -213 2 80 0 0 0  1.0700722016E+01  1.6591110796E+01 -1.6769251590E+01  2.5913703226E+01  7.3607532657E-01  0.0000000000E+00  9.0000000000E+00
 111 2 80 0 0 0  2.5525101971E+00  3.1429668766E+00 -3.7337520088E+00  5.5093259803E+00  1.3498000000E-01  2.3281721363E-05  9.0000000000E+00
 -421 2 80 0 0 0  1.7406675620E+01  2.4290963111E+01 -2.7246286439E+01  4.0483079552E+01  1.8645000000E+00  1.8857185226E-02  9.0000000000E+00
 -521 2 40 0 0 0  3.4033582591E+00 -1.4641004214E+01 -4.3662828935E+01  4.6478503286E+01  5.2789000000E+00  5.0568903675E-01  9.0000000000E+00
 22 1 40 0 0 0 -1.7587296376E-03 -9.0124327720E-02 -3.7794262804E-01  3.8854358529E-01  7.4505805969E-09  0.0000000000E+00  9.0000000000E+00
 211 1 41 0 0 0  7.7396979620E-01 -4.1253182282E+00 -1.1556574255E+01  1.2295981784E+01  1.3957000000E-01  0.0000000000E+00  9.0000000000E+00
 -211 1 41 0 0 0  1.3019064885E-01 -1.9947988016E-01 -5.9874601283E-01  6.5933178326E-01  1.3957000000E-01  0.0000000000E+00  9.0000000000E+00
 211 1 42 0 0 0  1.2795169925E-01 -5.4026875678E-01 -2.3524060275E+00  2.4210650281E+00  1.3957000000E-01  0.0000000000E+00  9.0000000000E+00
 -211 1 42 0 0 0  8.0589352008E-01 -9.9688875916E-01 -4.0615104223E+00  4.2612906799E+00  1.3957000000E-01  0.0000000000E+00  9.0000000000E+00
 111 2 42 0 0 0 -2.4965800391E-02 -1.9016198335E-01 -5.7622358342E-01  6.2212385389E-01  1.3498000000E-01  7.4167126962E-06  9.0000000000E+00
 -213 2 43 0 0 0 -2.2938660991E-01 -7.5686208132E-01 -8.4950766369E-01  1.3140211841E+00  6.1606004135E-01  0.0000000000E+00  9.0000000000E+00
 211 1 43 0 0 0  4.8663730853E-01 -4.8564678093E-01 -1.3246264526E+00  1.4989275131E+00  1.3957000000E-01  0.0000000000E+00  9.0000000000E+00
 321 1 44 0 0 0 -2.8190966034E-01 -2.7443629629E-01 -6.0238179020E-01  8.7252112782E-01  4.9360000000E-01  0.0000000000E+00  9.0000000000E+00
 113 2 44 0 0 0 -4.5070627737E-02 -2.4351893435E-01 -6.2001712281E-01  1.0078532974E+00  7.5499285003E-01  0.0000000000E+00  9.0000000000E+00
 -313 2 45 0 0 0  2.2010521492E-01  3.6114976409E-01  6.2596037089E-01  1.1681388481E+00  8.9098065348E-01  0.0000000000E+00  9.0000000000E+00
 311 2 45 0 0 0  1.8090143340E-01  3.4274490800E-01  3.8643744520E-01  7.3973558014E-01  4.9767000000E-01  0.0000000000E+00  9.0000000000E+00
 130 1 46 0 0 0  6.2539290965E-01 -1.9956314577E+00  5.8655293188E-01  2.2283134827E+00  4.9767000000E-01  0.0000000000E+00  9.0000000000E+00
 211 1 48 0 0 0  1.2831940510E+00 -7.9526226299E-01  2.3036043378E+00  2.7577348983E+00  1.3957000000E-01  0.0000000000E+00  9.0000000000E+00
 111 2 48 0 0 0  3.7977561224E+00 -1.2704292763E+00  7.0198714990E+00  8.0829300117E+00  1.3498000000E-01  1.0716601810E-05  9.0000000000E+00
 2112 1 49 0 0 0  3.6829262159E+00 -3.8918428552E+00  6.2781694565E+00  8.3071408939E+00  9.3957000000E-01  0.0000000000E+00  9.0000000000E+00
 111 2 49 0 0 0  3.0085373382E-01 -2.7635916960E-01  4.2534662562E-01  6.0500141496E-01  1.3498000000E-01  6.6535180120E-05  9.0000000000E+00
 113 2 50 0 0 0  1.5508358442E+00 -1.1310052477E+00  1.4195597591E+00  2.4704399090E+00  6.3534144230E-01  0.0000000000E+00  9.0000000000E+00
 -211 1 50 0 0 0  8.5876402934E-01 -6.6690343757E-01  1.8958364238E+00  2.1899569365E+00  1.3957000000E-01  0.0000000000E+00  9.0000000000E+00
 -3312 2 51 0 0 0  2.2713583603E+00 -1.5915957091E+00  5.2847303129E+00  6.1128106361E+00  1.3213000000E+00  9.1936967335E+00  9.0000000000E+00
 111 2 51 0 0 0  5.7699735301E-02 -1.6287488524E-02  2.3299394260E-01  2.7586286344E-01  1.3498000000E-01  2.6718290587E-05  9.0000000000E+00
 310 2 52 0 0 0  2.4293194059E-01  1.6797500533E-01 -8.0226409436E-02  5.8424586934E-01  4.9767000000E-01  3.0321213806E+01  9.0000000000E+00
 22 1 53 0 0 0  8.7378480305E-04 -1.8043809092E-01  8.4282411463E-02  1.9915369200E-01 -7.4505805969E-09  0.0000000000E+00  9.0000000000E+00
 22 1 53 0 0 0 -1.1692184194E-01 -1.1912490312E-01  1.0845869253E-01  1.9905965852E-01 -9.1250603750E-09  0.0000000000E+00  9.0000000000E+00
 -211 1 54 0 0 0  2.1266542839E-01  4.3555694981E-03  9.2867625148E-01  9.6289403382E-01  1.3957000000E-01  0.0000000000E+00  9.0000000000E+00
 211 1 54 0 0 0  1.5216547170E-01  8.4828909105E-01  1.5174796720E+00  1.7507064438E+00  1.3957000000E-01  0.0000000000E+00  9.0000000000E+00
 113 2 55 0 0 0  1.1861118464E+00  3.4468808459E+00  3.3525689005E+00  5.0720761187E+00  1.0947095700E+00  0.0000000000E+00  9.0000000000E+00
 -211 1 55 0 0 0  1.0190256499E+00  1.6072645148E+00  1.5780859989E+00  2.4761962161E+00  1.3957000000E-01  0.0000000000E+00  9.0000000000E+00
 223 2 56 0 0 0  5.3233687055E-01  1.3962004281E+00  1.5538802609E+00  2.3132080662E+00  8.3882627132E-01  0.0000000000E+00  9.0000000000E+00
 211 1 56 0 0 0 -7.4374929219E-02  8.2261425272E-01  9.1016256408E-01  1.2369727228E+00  1.3957000000E-01  0.0000000000E+00  9.0000000000E+00
 -211 1 57 0 0 0 -3.8259780118E-02  1.8638569726E-01  4.0859005896E-01  4.7183584020E-01  1.3957000000E-01  0.0000000000E+00  9.0000000000E+00
 111 2 57 0 0 0 -5.1732239677E-01  1.2367437875E+00  2.6415388759E+00  2.9653169968E+00  1.3498000000E-01  5.2404997413E-05  9.0000000000E+00
 223 2 58 0 0 0 -1.2523025641E-01  1.5273975777E+00  1.2891279426E+00  2.1569609842E+00  8.0125143229E-01  0.0000000000E+00  9.0000000000E+00
 111 2 58 0 0 0 -1.8303661366E-01  3.3193880454E-02  6.5369168247E-01  6.9291893593E-01  1.3498000000E-01  4.3497437427E-05  9.0000000000E+00
 511 2 61 0 0 0  1.0260558594E+00 -2.9063462691E-01  4.4325344962E+00  6.9752830633E+00  5.2792000000E+00  4.5270285763E-02  9.0000000000E+00
 22 1 61 0 0 0  1.2850924975E-02  4.2887383354E-02  3.0884710024E-02  5.4390617177E-02  1.1406325469E-09  0.0000000000E+00  9.0000000000E+00
 323 2 63 0 0 0  1.1247416515E+01 -7.9959851457E+00  1.1472638510E+01  1.7967868343E+01  8.8470429565E-01  0.0000000000E+00  9.0000000000E+00
 -211 1 63 0 0 0  2.3984056369E+00 -1.7062742637E+00  2.9284768593E+00  4.1544166814E+00  1.3957000000E-01  0.0000000000E+00  9.0000000000E+00
 113 2 64 0 0 0  1.9174861125E+00 -7.6997138135E-01  3.0074775504E+00  3.7078817014E+00  6.5867789996E-01  0.0000000000E+00  9.0000000000E+00
 211 1 64 0 0 0  2.3610743742E-01  1.9895848756E-01  4.2992777994E-02  3.4155433775E-01  1.3957000000E-01  0.0000000000E+00  9.0000000000E+00
 211 1 66 0 0 0 -1.2421834068E+00  1.2579287738E+00  1.3923299297E+00  2.2546544822E+00  1.3957000000E-01  0.0000000000E+00  9.0000000000E+00
 111 2 66 0 0 0 -2.0559777090E-01  5.9696526749E-01  2.0513202940E-01  6.7744868726E-01  1.3498000000E-01  2.0738909485E-05  9.0000000000E+00
 211 1 69 0 0 0 -1.7321045625E+00  8.7710794843E-01  1.6025000460E+00  2.5213073495E+00  1.3957000000E-01  0.0000000000E+00  9.0000000000E+00
 -211 1 69 0 0 0 -2.9121684189E+00  2.1511626025E+00  2.9940699601E+00  4.7002297979E+00  1.3957000000E-01  0.0000000000E+00  9.0000000000E+00
 111 2 69 0 0 0 -5.4275691825E-01  3.3344710834E-01  3.8482929123E-01  7.5636316024E-01  1.3498000000E-01  3.9705296138E-05  9.0000000000E+00
 221 2 70 0 0 0 -1.0330192780E+00  4.8439718933E-01  1.1991771321E+00  1.7434152581E+00  5.4745000000E-01  0.0000000000E+00  9.0000000000E+00
 211 1 70 0 0 0 -1.1755135188E+00  3.3771347999E-01  5.5057638505E-01  1.3485164323E+00  1.3957000000E-01  0.0000000000E+00  9.0000000000E+00
 22 1 71 0 0 0 -2.6026636391E+00  1.6764702720E+00  2.5133640652E+00  3.9876571461E+00  4.2146848511E-08  0.0000000000E+00  9.0000000000E+00
 22 1 71 0 0 0 -1.5194547671E+00  8.7748441543E-01  1.4966475432E+00  2.3062253917E+00  5.1619136559E-08  0.0000000000E+00  9.0000000000E+00
 323 2 73 0 0 0 -1.9241283324E+00  6.5790249092E-01  2.0319940105E+00  2.9860464565E+00  8.0769316845E-01  0.0000000000E+00  9.0000000000E+00
 111 2 73 0 0 0 -2.2909536175E-02  8.8918088338E-02  5.1740655481E-01  5.4254992087E-01  1.3498000000E-01  7.2550160781E-05  9.0000000000E+00
 -211 1 74 0 0 0 -3.8305343283E-01  5.9208995243E-02  4.2793821702E-01  5.9400887200E-01  1.3957000000E-01  0.0000000000E+00  9.0000000000E+00
 111 2 74 0 0 0 -4.0931340827E+00  1.6594972349E+00  2.3714955123E+00  5.0149664263E+00  1.3498000000E-01  2.5810184019E-07  9.0000000000E+00
 22 1 75 0 0 0 -2.0179896238E+00 -1.7552577020E+00  1.4440083720E+00  3.0394690163E+00  0.0000000000E+00  0.0000000000E+00  9.0000000000E+00
 22 1 75 0 0 0 -4.0261466493E-01 -2.7529624202E-01  2.5105087428E-01  5.4855549470E-01  7.4505805969E-09  0.0000000000E+00  9.0000000000E+00
 113 2 76 0 0 0 -5.3597072124E-01 -3.9099578217E-01  7.9966272260E-01  1.2328855462E+00  6.6362940297E-01  0.0000000000E+00  9.0000000000E+00
 211 1 76 0 0 0 -3.9045602667E-01 -9.3118006516E-01  8.2406688076E-01  1.3107700910E+00  1.3957000000E-01  0.0000000000E+00  9.0000000000E+00
 310 2 77 0 0 0 -3.3771602516E+00 -3.6196925530E+00  2.7839154415E+00  5.7013372254E+00  4.9767000000E-01  2.0321705581E+01  9.0000000000E+00
 310 2 77 0 0 0 -3.6092078971E+00 -3.7927711424E+00  3.0343695095E+00  6.0717846085E+00  4.9767000000E-01  1.6086190304E+01  9.0000000000E+00
 -211 1 78 0 0 0 -7.2962541239E-01 -7.4834254828E-01  5.8237973069E-01  1.2045811503E+00  1.3957000000E-01  0.0000000000E+00  9.0000000000E+00
 211 1 78 0 0 0 -8.7047998832E-01 -8.7903845657E-01  1.0369118213E+00  1.6202190988E+00  1.3957000000E-01  0.0000000000E+00  9.0000000000E+00
 111 2 78 0 0 0 -4.2938742862E-01 -9.4757373612E-01  9.4184500577E-01  1.4098089106E+00  1.3498000000E-01  6.2638268661E-05  9.0000000000E+00
 413 2 79 0 0 0 -1.1059350814E+01 -1.3015508722E+01  9.8630521752E+00  1.9825049961E+01  2.0100000000E+00  0.0000000000E+00  9.0000000000E+00
 -211 1 79 0 0 0 -2.9311651069E+00 -3.2742712468E+00  2.0431489012E+00  4.8483521220E+00  1.3957000000E-01  0.0000000000E+00  9.0000000000E+00
 3122 2 81 0 0 0 -1.7121781475E+01 -6.2936250385E+00  1.4284059940E+00  1.8331672115E+01  1.1156800000E+00  3.3266141725E+02  9.0000000000E+00
 211 1 81 0 0 0 -8.0514619610E-01 -3.0351461350E-01 -1.4969439545E-02  8.7182875998E-01  1.3957000000E-01  0.0000000000E+00  9.0000000000E+00
 221 2 82 0 0 0 -2.1712237022E+00 -9.0000682712E-01  1.7752117528E-01  2.4198016290E+00  5.4745000000E-01  0.0000000000E+00  9.0000000000E+00
 111 2 82 0 0 0  1.8374983744E-02  1.5567681056E-01  9.5966565535E-02  2.2803967083E-01  1.3498000000E-01  9.2429387932E-07  9.0000000000E+00
 -2212 1 83 0 0 0 -1.1960940792E+00  6.1689189330E-01 -2.5747058930E-01  1.6606740654E+00  9.3827000000E-01  0.0000000000E+00  9.0000000000E+00
 -211 1 83 0 0 0 -1.7785100664E-01  5.9216880895E-01 -1.7824690106E-01  6.5844257266E-01  1.3957000000E-01  0.0000000000E+00  9.0000000000E+00
 311 2 84 0 0 0  2.0411721152E+00  2.4250231206E+00 -4.0055735157E+00  5.1321940102E+00  4.9767000000E-01  0.0000000000E+00  9.0000000000E+00
 211 1 84 0 0 0  2.6725896894E-01  5.6482643253E-01 -4.6452439691E-01  7.9102399179E-01  1.3957000000E-01  0.0000000000E+00  9.0000000000E+00
 -323 2 85 0 0 0  1.8751070046E+00  1.5546670722E+00 -1.8664614268E+00  3.1686202986E+00  7.8959505743E-01  0.0000000000E+00  9.0000000000E+00
 211 1 85 0 0 0  3.7195175730E-01  9.1791265543E-02 -8.0527482402E-01  9.0261900782E-01  1.3957000000E-01  0.0000000000E+00  9.0000000000E+00
 -211 1 86 0 0 0  5.0885336687E+00  8.2282826262E+00 -8.5938427817E+00  1.2941075049E+01  1.3957000000E-01  0.0000000000E+00  9.0000000000E+00
 111 2 86 0 0 0  5.6121883469E+00  8.3628281700E+00 -8.1754088080E+00  1.2972628177E+01  1.3498000000E-01  2.1726569730E-05  9.0000000000E+00
 22 1 87 0 0 0  3.8805627789E-01  4.6709544020E-01 -4.9648362792E-01  7.8438626827E-01 -1.4901161194E-08  0.0000000000E+00  9.0000000000E+00
 22 1 87 0 0 0  2.1644539192E+00  2.6758714364E+00 -3.2372683809E+00  4.7249397121E+00  0.0000000000E+00  0.0000000000E+00  9.0000000000E+00
 321 1 88 0 0 0  3.3245471934E+00  4.7476414615E+00 -5.2965360168E+00  7.8669974085E+00  4.9360000000E-01  0.0000000000E+00  9.0000000000E+00
 -20213 2 88 0 0 0  1.4082128427E+01  1.9543321650E+01 -2.1949750422E+01  3.2616082143E+01  1.3302287913E+00  0.0000000000E+00  9.0000000000E+00
 421 2 89 0 0 0  2.6011810656E+00 -6.6348331001E+00 -1.5058597201E+01  1.6763796202E+01  1.8645000000E+00  4.7434960836E-01  9.0000000000E+00
 -211 1 89 0 0 0  8.0217719350E-01 -8.0061711144E+00 -2.8604231734E+01  2.9714707083E+01  1.3957000000E-01  0.0000000000E+00  9.0000000000E+00
 22 1 95 0 0 0 -3.3701321706E-02 -9.9853097964E-03 -2.2042179740E-01  2.2320675229E-01  7.9025340958E-09  0.0000000000E+00  9.0000000000E+00
 22 1 95 0 0 0  8.7355213159E-03 -1.8017667355E-01 -3.5580178602E-01  3.9891710161E-01  1.1780402288E-08  0.0000000000E+00  9.0000000000E+00
 -211 1 96 0 0 0 -5.4993960453E-02 -1.2582241965E-01  4.1492914088E-02  2.0014260864E-01  1.3957000000E-01  0.0000000000E+00  9.0000000000E+00
 111 2 96 0 0 0 -1.7439264946E-01 -6.3103966167E-01 -8.9100057778E-01  1.1138785754E+00  1.3498000000E-01  4.5930758254E-05  9.0000000000E+00
 -211 1 99 0 0 0 -2.4911025355E-01 -3.8277581051E-01 -2.4247954611E-01  5.3558319122E-01  1.3957000000E-01  0.0000000000E+00  9.0000000000E+00
 211 1 99 0 0 0  2.0403962581E-01  1.3925687616E-01 -3.7753757669E-01  4.7227010616E-01  1.3957000000E-01  0.0000000000E+00  9.0000000000E+00
 -321 1 100 0 0 0  1.7961690369E-03  4.6477297425E-01  5.6488557110E-01  8.8247028972E-01  4.9360000000E-01  0.0000000000E+00  9.0000000000E+00
 211 1 100 0 0 0  2.1830904588E-01 -1.0362321016E-01  6.1074799789E-02  2.8566855841E-01  1.3957000000E-01  0.0000000000E+00  9.0000000000E+00
 130 1 101 0 0 0  1.8090143340E-01  3.4274490800E-01  3.8643744520E-01  7.3973558014E-01  4.9767000000E-01  0.0000000000E+00  9.0000000000E+00
 22 1 104 0 0 0  1.6877945919E+00 -5.0005104302E-01  3.1392358607E+00  3.5990975840E+00 -5.9604644775E-08  0.0000000000E+00  9.0000000000E+00
 22 1 104 0 0 0  2.1099615305E+00 -7.7037823325E-01  3.8806356382E+00  4.4838324276E+00  0.0000000000E+00  0.0000000000E+00  9.0000000000E+00
 22 1 106 0 0 0  1.2504328918E-01 -3.3854008296E-02  1.0843219677E-01  1.6893625823E-01  3.2261960349E-09  0.0000000000E+00  9.0000000000E+00
 22 1 106 0 0 0  1.7581044464E-01 -2.4250516131E-01  3.1691442885E-01  4.3606515673E-01  9.1250603750E-09  0.0000000000E+00  9.0000000000E+00
 211 1 107 0 0 0  4.8246555829E-01 -6.8065399973E-01  4.8763287464E-01  9.7638541960E-01  1.3957000000E-01  0.0000000000E+00  9.0000000000E+00
 -211 1 107 0 0 0  1.0683702859E+00 -4.5035124793E-01  9.3192688447E-01  1.4940544894E+00  1.3957000000E-01  0.0000000000E+00  9.0000000000E+00
 -3122 2 109 0 0 0  1.9848229160E+00 -1.2658436393E+00  4.2971823448E+00  5.0251766232E+00  1.1156800000E+00  5.4458032829E+00  9.0000000000E+00
 211 1 109 0 0 0  2.8653544435E-01 -3.2575206986E-01  9.8754796811E-01  1.0876340129E+00  1.3957000000E-01  0.0000000000E+00  9.0000000000E+00
 22 1 110 0 0 0 -2.5670447258E-02 -4.6956973040E-02  1.2536292342E-01  1.3630770979E-01 -3.2261960349E-09  0.0000000000E+00  9.0000000000E+00
 22 1 110 0 0 0  8.3370182559E-02  3.0669484516E-02  1.0763101918E-01  1.3955515365E-01 -3.2261960349E-09  0.0000000000E+00  9.0000000000E+00
 211 1 111 0 0 0  2.4403470887E-01  2.8017647031E-01 -8.1385380549E-02  4.0516065791E-01  1.3957000000E-01  0.0000000000E+00  9.0000000000E+00
 -211 1 111 0 0 0 -1.1027682762E-03 -1.1220146498E-01  1.1589711130E-03  1.7908521144E-01  1.3957000000E-01  0.0000000000E+00  9.0000000000E+00
 211 1 116 0 0 0  1.6918116920E-01  1.8489000842E+00  2.0486458837E+00  2.7682997546E+00  1.3957000000E-01  0.0000000000E+00  9.0000000000E+00
 -211 1 116 0 0 0  1.0169306772E+00  1.5979807618E+00  1.3039230168E+00  2.3037763641E+00  1.3957000000E-01  0.0000000000E+00  9.0000000000E+00
 211 1 118 0 0 0 -4.6472621438E-02  4.8254244603E-02  8.2639244962E-02  1.7549132849E-01  1.3957000000E-01  0.0000000000E+00  9.0000000000E+00
 -211 1 118 0 0 0  1.2056157206E-01  6.5891051014E-01  8.6578525084E-01  1.1035225591E+00  1.3957000000E-01  0.0000000000E+00  9.0000000000E+00
 111 2 118 0 0 0  4.5824791992E-01  6.8903567332E-01  6.0545576508E-01  1.0341941786E+00  1.3498000000E-01  7.3508076192E-05  9.0000000000E+00
 22 1 121 0 0 0 -7.8185621967E-03  8.0190399504E-02  2.1059812916E-01  2.2548437217E-01  5.8902011442E-09  0.0000000000E+00  9.0000000000E+00
 22 1 121 0 0 0 -5.0950383457E-01  1.1565533880E+00  2.4309407467E+00  2.7398326246E+00 -2.9802322388E-08  0.0000000000E+00  9.0000000000E+00
 211 1 122 0 0 0 -1.3230003600E-01  9.8597262178E-01  8.2846714808E-01  1.3021071042E+00  1.3957000000E-01  0.0000000000E+00  9.0000000000E+00
 -211 1 122 0 0 0  6.3607358039E-02 -9.3340451497E-04  1.4193470388E-01  2.0897849723E-01  1.3957000000E-01  0.0000000000E+00  9.0000000000E+00
 111 2 122 0 0 0 -5.6537578442E-02  5.4235836039E-01  3.1872609062E-01  6.4587538279E-01  1.3498000000E-01  1.0566204132E-05  9.0000000000E+00
 22 1 123 0 0 0  8.4642599946E-03 -2.7218310365E-02  6.6870831802E-02  7.2692422317E-02  2.4640479228E-09  0.0000000000E+00  9.0000000000E+00
 22 1 123 0 0 0 -1.9150087366E-01  6.0412190819E-02  5.8682085067E-01  6.2022651362E-01  0.0000000000E+00  0.0000000000E+00  9.0000000000E+00
 -211 1 124 0 0 0  9.3316146071E-01  9.1634945391E-01 -5.7754113625E-01  1.4364957997E+00  1.3957000000E-01  0.0000000000E+00  9.0000000000E+00
 211 1 124 0 0 0 -1.4857081451E-01  7.2555064446E-02  6.3435126111E-01  6.7023789185E-01  1.3957000000E-01  0.0000000000E+00  9.0000000000E+00
 -211 1 124 0 0 0 -3.2145782026E-01 -3.0439516086E-01  2.8450457852E-01  5.4443933019E-01  1.3957000000E-01  0.0000000000E+00  9.0000000000E+00
 213 2 124 0 0 0  5.6292303343E-01 -9.7514398441E-01  4.0912197928E+00  4.3241100416E+00  8.3190151269E-01  0.0000000000E+00  9.0000000000E+00
 321 1 126 0 0 0  5.7701491459E+00 -3.9934730197E+00  5.5246115839E+00  8.9446868049E+00  4.9360000000E-01  0.0000000000E+00  9.0000000000E+00
 111 2 126 0 0 0  5.4772673688E+00 -4.0025121260E+00  5.9480269264E+00  9.0231815379E+00  1.3498000000E-01  2.7784011055E-05  9.0000000000E+00
 211 1 128 0 0 0  2.2687620747E-01  5.5314897558E-02  2.6952369240E-01  3.8295607721E-01  1.3957000000E-01  0.0000000000E+00  9.0000000000E+00
 -211 1 128 0 0 0  1.6906099050E+00 -8.2528627891E-01  2.7379538580E+00  3.3249256242E+00  1.3957000000E-01  0.0000000000E+00  9.0000000000E+00
 22 1 131 0 0 0 -1.7632317507E-01  3.3537187538E-01  8.6090321774E-02  3.8855591665E-01 -1.4901161194E-08  0.0000000000E+00  9.0000000000E+00
 22 1 131 0 0 0 -2.9274595830E-02  2.6159339211E-01  1.1904170763E-01  2.8889277061E-01 -1.2355390155E-08  0.0000000000E+00  9.0000000000E+00
 22 1 134 0 0 0 -9.9440722584E-02  4.4975793407E-02  1.3170802217E-02  1.0993065692E-01 -1.3170890160E-09  0.0000000000E+00  9.0000000000E+00
 22 1 134 0 0 0 -4.4331619567E-01  2.8847131494E-01  3.7165848902E-01  6.4643250332E-01  1.4901161194E-08  0.0000000000E+00  9.0000000000E+00
 111 2 135 0 0 0 -1.4135975290E-01  6.6815349760E-03  2.2740110975E-01  2.9993013814E-01  1.3498000000E-01  5.3475452115E-05  9.0000000000E+00
 111 2 135 0 0 0 -5.2942671721E-01  2.0936496046E-01  4.3150264538E-01  7.2700788780E-01  1.3498000000E-01  1.7642957677E-05  9.0000000000E+00
 111 2 135 0 0 0 -3.6223280789E-01  2.6835069390E-01  5.4027337694E-01  7.1647723220E-01  1.3498000000E-01  1.5365491353E-05  9.0000000000E+00
 311 2 139 0 0 0 -8.9844426840E-01  2.8521052766E-01  1.2109739636E+00  1.6132825289E+00  4.9767000000E-01  0.0000000000E+00  9.0000000000E+00
 211 1 139 0 0 0 -1.0256840640E+00  3.7269196326E-01  8.2102004696E-01  1.3727639277E+00  1.3957000000E-01  0.0000000000E+00  9.0000000000E+00
 22 1 140 0 0 0 -6.1454695059E-02  1.0448779312E-01  4.0232449568E-01  4.2018969321E-01  5.2683560639E-09  0.0000000000E+00  9.0000000000E+00
 22 1 140 0 0 0  3.8545158885E-02 -1.5569704785E-02  1.1508205913E-01  1.2236022767E-01  1.8626451492E-09  0.0000000000E+00  9.0000000000E+00
 22 1 142 0 0 0 -3.0048710853E+00  1.2711394147E+00  1.7131522849E+00  3.6850965254E+00  5.9604644775E-08  0.0000000000E+00  9.0000000000E+00
 22 1 142 0 0 0 -1.0882629975E+00  3.8835782020E-01  6.5834322737E-01  1.3298699009E+00  1.4901161194E-08  0.0000000000E+00  9.0000000000E+00
 -211 1 145 0 0 0  4.5728519127E-02  1.1727362301E-02 -1.1173816509E-02  1.4776084584E-01  1.3957000000E-01  0.0000000000E+00  9.0000000000E+00
 211 1 145 0 0 0 -5.8169924037E-01 -4.0272314448E-01  8.1083653911E-01  1.0851247004E+00  1.3957000000E-01  0.0000000000E+00  9.0000000000E+00
 -211 1 147 0 0 0 -9.9656574077E-01 -8.4764150621E-01  8.2611271765E-01  1.5535705346E+00  1.3957000000E-01  0.0000000000E+00  9.0000000000E+00
 211 1 147 0 0 0 -2.3805945108E+00 -2.7720510468E+00  1.9578027239E+00  4.1477666908E+00  1.3957000000E-01  0.0000000000E+00  9.0000000000E+00
 111 2 148 0 0 0 -9.7743231387E-01 -1.2972377705E+00  9.3914288296E-01  1.8810658459E+00  1.3498000000E-01  2.7120349444E-05  9.0000000000E+00
 111 2 148 0 0 0 -2.6317755832E+00 -2.4955333718E+00  2.0952266265E+00  4.1907187626E+00  1.3498000000E-01  9.4520587204E-06  9.0000000000E+00
 22 1 151 0 0 0 -1.8420525983E-01 -3.2300224455E-01  2.6389002482E-01  4.5596049493E-01 -5.2683560639E-09  0.0000000000E+00  9.0000000000E+00
 22 1 151 0 0 0 -2.4518216878E-01 -6.2457149157E-01  6.7795498095E-01  9.5384841572E-01  1.0536712128E-08  0.0000000000E+00  9.0000000000E+00
 411 2 152 0 0 0 -1.0179901136E+01 -1.1935645552E+01  9.0706106539E+00  1.8217032744E+01  1.8693000000E+00  4.0396483973E-01  9.0000000000E+00
 111 2 152 0 0 0 -8.7944967844E-01 -1.0798631707E+00  7.9244152125E-01  1.6080172167E+00  1.3498000000E-01  1.7500810227E-05  9.0000000000E+00
 2212 1 154 0 0 0 -1.4746042647E+01 -5.4645846221E+00  1.3213877641E+00  1.5809297108E+01  9.3827000000E-01  0.0000000000E+00  9.0000000000E+00
 -211 1 154 0 0 0 -2.3757388275E+00 -8.2904041637E-01  1.0701822992E-01  2.5223750068E+00  1.3957000000E-01  0.0000000000E+00  9.0000000000E+00
 211 1 156 0 0 0 -1.0091207715E+00 -3.5067555356E-01  2.7801520145E-02  1.0777526547E+00  1.3957000000E-01  0.0000000000E+00  9.0000000000E+00
 -211 1 156 0 0 0 -7.8346070228E-01 -3.9829698298E-01  1.9255368129E-01  9.1049868959E-01  1.3957000000E-01  0.0000000000E+00  9.0000000000E+00
 111 2 156 0 0 0 -3.7864222840E-01 -1.5103429058E-01 -4.2834026156E-02  4.3155028473E-01  1.3498000000E-01  1.1063643392E-06  9.0000000000E+00
 22 1 157 0 0 0  2.9164734528E-03  4.9327029747E-02  1.0910419521E-01  1.1977223006E-01 -9.4058969415E-09  0.0000000000E+00  9.0000000000E+00
 22 1 157 0 0 0  1.5458510291E-02  1.0634978081E-01 -1.3137629672E-02  1.0826744077E-01 -9.4058969415E-09  0.0000000000E+00  9.0000000000E+00
 130 1 160 0 0 0  2.0411721152E+00  2.4250231206E+00 -4.0055735157E+00  5.1321940102E+00  4.9767000000E-01  0.0000000000E+00  9.0000000000E+00
 -321 1 162 0 0 0  8.5763290294E-01  7.1652964108E-01 -1.0594237289E+00  1.6170864294E+00  4.9360000000E-01  0.0000000000E+00  9.0000000000E+00
 111 2 162 0 0 0  1.0174741017E+00  8.3813743115E-01 -8.0703769789E-01  1.5515338692E+00  1.3498000000E-01  4.1066818943E-05  9.0000000000E+00
 22 1 165 0 0 0  1.7851036050E-01  2.9829491230E-01 -3.0416747287E-01  4.6191303842E-01 -1.1780402288E-08  0.0000000000E+00  9.0000000000E+00
 22 1 165 0 0 0  5.4336779864E+00  8.0645332577E+00 -7.8712413352E+00  1.2510715139E+01  2.3841857910E-07  0.0000000000E+00  9.0000000000E+00
 113 2 169 0 0 0  1.3457088373E+01  1.8488722318E+01 -2.1041002941E+01  3.1083712544E+01  7.3979747863E-01  0.0000000000E+00  9.0000000000E+00
 -211 1 169 0 0 0  6.2504005357E-01  1.0545993321E+00 -9.0874748070E-01  1.5323695991E+00  1.3957000000E-01  0.0000000000E+00  9.0000000000E+00
 -13 1 170 0 0 0  1.2601211691E+00 -2.1297891823E+00 -4.5027323252E+00  5.1390339315E+00  1.0566000000E-01  0.0000000000E+00  9.0000000000E+00
 14 1 170 0 0 0  2.4028467528E-01 -1.5477323705E+00 -3.2023197559E+00  3.5648371681E+00  8.4293697022E-08  0.0000000000E+00  9.0000000000E+00
 -323 2 170 0 0 0  1.1007752212E+00 -2.9573115474E+00 -7.3535451199E+00  8.0599251027E+00  9.6455645530E-01  0.0000000000E+00  9.0000000000E+00
 22 1 175 0 0 0 -1.4149098078E-01 -6.1516798352E-01 -8.2975777282E-01  1.0425686103E+00  2.1073424255E-08  0.0000000000E+00  9.0000000000E+00
 22 1 175 0 0 0 -3.2901668681E-02 -1.5871678149E-02 -6.1242804959E-02  7.1309965141E-02  2.0825005858E-09  0.0000000000E+00  9.0000000000E+00
 -2212 1 187 0 0 0  1.4877994825E+00 -1.0187740917E+00  3.3340580226E+00  3.9048356484E+00  9.3827000000E-01  0.0000000000E+00  9.0000000000E+00
 211 1 187 0 0 0  4.9702343346E-01 -2.4706954753E-01  9.6312432219E-01  1.1203409747E+00  1.3957000000E-01  0.0000000000E+00  9.0000000000E+00
 22 1 197 0 0 0  9.4633493837E-03  7.9433841267E-02  4.0713939686E-02  8.9760319768E-02 -3.2261960349E-09  0.0000000000E+00  9.0000000000E+00
 22 1 197 0 0 0  4.4878457054E-01  6.0960183206E-01  5.6474182540E-01  9.4443385886E-01  1.8250120750E-08  0.0000000000E+00  9.0000000000E+00
 22 1 202 0 0 0 -8.5913053328E-02  2.0965721890E-01  1.0839853336E-01  2.5117214058E-01  5.2683560639E-09  0.0000000000E+00  9.0000000000E+00
 22 1 202 0 0 0  2.9375474886E-02  3.3270114149E-01  2.1032755726E-01  3.9470324221E-01  0.0000000000E+00  0.0000000000E+00  9.0000000000E+00
 211 1 208 0 0 0  6.4172333432E-01 -9.9142748921E-01  3.8962593749E+00  4.0737027636E+00  1.3957000000E-01  0.0000000000E+00  9.0000000000E+00
 111 2 208 0 0 0 -7.8800300892E-02  1.6283504799E-02  1.9496041783E-01  2.5040727799E-01  1.3498000000E-01  2.6384866690E-06  9.0000000000E+00
 22 1 210 0 0 0  3.0006503336E+00 -2.2588580867E+00  3.3466775482E+00  5.0305658620E+00 -1.4600096600E-07  0.0000000000E+00  9.0000000000E+00
 22 1 210 0 0 0  2.4766170352E+00 -1.7436540393E+00  2.6013493782E+00  3.9926156759E+00 -9.4243218308E-08  0.0000000000E+00  9.0000000000E+00
 22 1 217 0 0 0  6.6376968282E-03 -1.9459562277E-02  1.0242291172E-01  1.0446619754E-01  1.8626451492E-09  0.0000000000E+00  9.0000000000E+00
 22 1 217 0 0 0 -1.4799744973E-01  2.6141097253E-02  1.2497819803E-01  1.9546394060E-01  2.6341780319E-09  0.0000000000E+00  9.0000000000E+00
 22 1 218 0 0 0 -3.7119341324E-01  8.1090048811E-02  2.5611405461E-01  4.5820798227E-01  0.0000000000E+00  0.0000000000E+00  9.0000000000E+00
 22 1 218 0 0 0 -1.5823330397E-01  1.2827491165E-01  1.7538859076E-01  2.6879990553E-01 -3.7252902985E-09  0.0000000000E+00  9.0000000000E+00
 22 1 219 0 0 0 -8.3340405262E-02  1.1015455181E-01  9.4473833983E-02  1.6734680678E-01  4.1650011716E-09  0.0000000000E+00  9.0000000000E+00
 22 1 219 0 0 0 -2.7889240263E-01  1.5819614209E-01  4.4579954295E-01  5.4913042541E-01  0.0000000000E+00  0.0000000000E+00  9.0000000000E+00
 310 2 220 0 0 0 -8.9844426840E-01  2.8521052766E-01  1.2109739636E+00  1.6132825289E+00  4.9767000000E-01  2.9984713811E+01  9.0000000000E+00
 22 1 230 0 0 0 -7.9960093331E-01 -9.7264711444E-01  7.4720717528E-01  1.4641456979E+00  4.2146848511E-08  0.0000000000E+00  9.0000000000E+00
 22 1 230 0 0 0 -1.7783138056E-01 -3.2459065609E-01  1.9193570768E-01  4.1692014801E-01  1.1780402288E-08  0.0000000000E+00  9.0000000000E+00
 22 1 231 0 0 0 -1.7425871670E+00 -1.5762077796E+00  1.3182632899E+00  2.6942269950E+00  4.2146848511E-08  0.0000000000E+00  9.0000000000E+00
 22 1 231 0 0 0 -8.8918841624E-01 -9.1932559219E-01  7.7696333664E-01  1.4964917676E+00  2.1073424255E-08  0.0000000000E+00  9.0000000000E+00
 -13 1 234 0 0 0 -7.4842935123E-01 -1.0321005429E+00  3.8284400750E-01  1.3353320165E+00  1.0566000000E-01  0.0000000000E+00  9.0000000000E+00
 14 1 234 0 0 0 -1.9602908887E+00 -2.7285916923E+00  1.5782077420E+00  3.7119661459E+00  0.0000000000E+00  0.0000000000E+00  9.0000000000E+00
 -311 2 234 0 0 0 -7.4711808956E+00 -8.1749533164E+00  7.1095589045E+00  1.3169734581E+01  4.9767000000E-01  0.0000000000E+00  9.0000000000E+00
 22 1 235 0 0 0 -3.7827273493E-01 -4.1669135128E-01  2.5271739027E-01  6.1691816602E-01  0.0000000000E+00  0.0000000000E+00  9.0000000000E+00
 22 1 235 0 0 0 -5.0117694352E-01 -6.6317181940E-01  5.3972413098E-01  9.9109905071E-01 -1.0536712128E-08  0.0000000000E+00  9.0000000000E+00
 22 1 240 0 0 0 -1.8528104490E-01 -3.4031161852E-02 -7.5983153607E-02  2.0312711588E-01 -7.4505805969E-09  0.0000000000E+00  9.0000000000E+00
 22 1 240 0 0 0 -1.9336118350E-01 -1.1700312873E-01  3.3149127451E-02  2.2842316885E-01 -7.4505805969E-09  0.0000000000E+00  9.0000000000E+00
 22 1 245 0 0 0  4.5930533904E-01  2.9587499730E-01 -3.1067715248E-01  6.2850911017E-01  1.8250120750E-08  0.0000000000E+00  9.0000000000E+00
 22 1 245 0 0 0  5.5816876264E-01  5.4226243385E-01 -4.9636054541E-01  9.2302475903E-01  2.7877519926E-08  0.0000000000E+00  9.0000000000E+00
 211 1 248 0 0 0  1.2487053183E+01  1.7284852719E+01 -1.9479355437E+01  2.8881783165E+01  1.3957000000E-01  0.0000000000E+00  9.0000000000E+00
 -211 1 248 0 0 0  9.7003518987E-01  1.2038695984E+00 -1.5616475040E+00  2.2019293793E+00  1.3957000000E-01  0.0000000000E+00  9.0000000000E+00
 -311 2 252 0 0 0  3.9989104712E-01 -9.3575113454E-01 -2.1083052321E+00  2.3933594414E+00  4.9767000000E-01  0.0000000000E+00  9.0000000000E+00
 -211 1 252 0 0 0  7.0088417410E-01 -2.0215604128E+00 -5.2452398878E+00  5.6665656613E+00  1.3957000000E-01  0.0000000000E+00  9.0000000000E+00
 22 1 262 0 0 0 -9.1991479130E-02  1.7396598863E-02  2.1026837266E-01  2.3016920391E-01  7.9025340958E-09  0.0000000000E+00  9.0000000000E+00
 22 1 262 0 0 0  1.3191178238E-02 -1.1130940645E-03 -1.5307954828E-02  2.0238074086E-02  2.5716985150E-09  0.0000000000E+00  9.0000000000E+00
 211 1 271 0 0 0 -3.5828262532E-01  5.8772217940E-02  7.8388488499E-01  8.7508623062E-01  1.3957000000E-01  0.0000000000E+00  9.0000000000E+00
 -211 1 271 0 0 0 -5.4016164308E-01  2.2643830972E-01  4.2708907861E-01  7.3819629824E-01  1.3957000000E-01  0.0000000000E+00  9.0000000000E+00
 130 1 278 0 0 0 -7.4711808956E+00 -8.1749533164E+00  7.1095589045E+00  1.3169734581E+01  4.9767000000E-01  0.0000000000E+00  9.0000000000E+00
 130 1 287 0 0 0  3.9989104712E-01 -9.3575113454E-01 -2.1083052321E+00  2.3933594414E+00  4.9767000000E-01  0.0000000000E+00  9.0000000000E+00
<weights>2.3396571801E+16</weights>
</event>
<event>
 315 1  1.0000000000E+00  3.6565594061E+02 -1.0000000000E+00  1.1780000000E-01
 11 -9 0 0 0 0  0.0000000000E+00  0.0000000000E+00  1.8250000000E+02  1.8250000000E+02  5.1099700000E-04  0.0000000000E+00  9.0000000000E+00
 -11 -9 0 0 0 0  0.0000000000E+00  0.0000000000E+00 -1.8250000000E+02  1.8250000000E+02  5.1099700000E-04  0.0000000000E+00  9.0000000000E+00
 11 2 1 2 0 0  0.0000000000E+00  0.0000000000E+00  1.8277352187E+02  1.8277352187E+02  5.1099859771E-04  0.0000000000E+00  9.0000000000E+00
 -11 2 1 2 0 0  0.0000000000E+00  0.0000000000E+00 -1.8288515819E+02  1.8288515819E+02  5.1100571701E-04  0.0000000000E+00  9.0000000000E+00
 11 -1 3 0 0 0  0.0000000000E+00  0.0000000000E+00  1.8277108749E+02  1.8277108749E+02  5.1099700000E-04  0.0000000000E+00  9.0000000000E+00
 -11 -1 4 0 0 0  0.0000000000E+00  0.0000000000E+00 -1.8288487082E+02  1.8288487082E+02  5.1099700000E-04  0.0000000000E+00  9.0000000000E+00
 22 1 3 0 0 0  0.0000000000E+00  0.0000000000E+00  2.4343792517E-03  2.4343792517E-03  0.0000000000E+00  0.0000000000E+00  9.0000000000E+00
 22 1 4 0 0 0  0.0000000000E+00  0.0000000000E+00 -2.8737099488E-04  2.8737099488E-04  0.0000000000E+00  0.0000000000E+00  9.0000000000E+00
 6 2 5 6 501 0  2.5099909381E+01 -4.4460859120E-01 -5.3275815667E+01  1.8284453960E+02  1.7310000000E+02  0.0000000000E+00  9.0000000000E+00
 -6 2 5 6 0 501 -2.5099909381E+01  4.4460859120E-01  5.3162032333E+01  1.8281141871E+02  1.7310000000E+02  0.0000000000E+00  9.0000000000E+00
 24 2 9 0 0 0  6.6850129240E+01 -4.4412899500E+01 -2.7956615672E+01  1.1696287787E+02  8.0357308438E+01  0.0000000000E+00  9.0000000000E+00
 5 2 9 0 1000 0 -4.1750219859E+01  4.3968290909E+01 -2.5319199995E+01  6.5881661729E+01  4.8000000000E+00  0.0000000000E+00  9.0000000000E+00
 -3 2 11 0 1001 1000  3.4304263944E+00  2.2098076790E+01 -6.7347828402E+00  2.3360225233E+01  5.0000000000E-01  0.0000000000E+00  9.0000000000E+00
 4 2 11 0 1002 1001  6.1360971886E+01 -6.4936838594E+01 -2.0904844088E+01  9.1767229356E+01  1.5000000000E+00  0.0000000000E+00  9.0000000000E+00
 -24 2 10 0 0 0  1.2681924812E+01 -5.6929958982E+01  6.6702888363E+00  9.9722128106E+01  8.0611157008E+01  0.0000000000E+00  9.0000000000E+00
 -5 2 10 0 1003 1002 -3.7781834193E+01  5.7374567573E+01  4.6491743497E+01  8.3089290601E+01  4.8000000000E+00  0.0000000000E+00  9.0000000000E+00
 1 2 15 0 1004 1003 -2.7420337895E+01 -4.9204582490E+01 -2.9143095492E+00  5.6405389533E+01  3.3000000000E-01  0.0000000000E+00  9.0000000000E+00
 -2 2 15 0 1005 1004  3.7009489803E+01  3.3340561191E-01  1.1402243240E+01  3.8728975532E+01  3.3000000000E-01  0.0000000000E+00  9.0000000000E+00
 5 2 12 0 1006 1005 -2.3233596806E+01  2.9785497938E+01 -2.2827053584E+01  4.4396962546E+01  4.8000000000E+00  0.0000000000E+00  9.0000000000E+00
 21 2 12 0 1007 1006 -3.0452691716E+00  5.6890744469E+00 -4.8746092056E+00  8.0870913991E+00  1.1920928955E-07  0.0000000000E+00  9.0000000000E+00
 21 2 12 0 1008 1007 -1.3412622922E+01  6.9195808276E+00  2.0654740507E+00  1.5233031069E+01  2.9200193200E-07  0.0000000000E+00  9.0000000000E+00
 -1 2 16 0 0 1008 -3.4426380199E+00  1.3341500865E+01 -6.6056433628E+00  1.5283678422E+01  3.3000000000E-01  0.0000000000E+00  9.0000000000E+00
 4 2 14 0 1009 0  1.3050554478E+01 -8.1779711920E+00 -4.6556851340E+00  1.6159257071E+01  1.5000000000E+00  0.0000000000E+00  9.0000000000E+00
 21 2 14 0 1010 1009  1.3863814662E+01 -1.0905035223E+01 -6.9670393243E+00  1.8964830269E+01  3.3717478809E-07  0.0000000000E+00  9.0000000000E+00
 21 2 14 0 1011 1010  4.8486262548E+00 -6.1199511175E+00 -2.9106929443E+00  8.3327733471E+00  2.0647654624E-07  0.0000000000E+00  9.0000000000E+00
 21 2 14 0 1012 1011  2.7693092582E+01 -3.6580647238E+01 -5.9685110748E+00  4.6267421082E+01  9.5367431641E-07  0.0000000000E+00  9.0000000000E+00
 21 2 13 0 1013 1012  1.6805233546E+00 -1.3431081697E+00 -1.5908285608E+00  2.6755997105E+00  5.9604644775E-08  0.0000000000E+00  9.0000000000E+00
 21 2 13 0 1014 1013 -2.9378622259E-01 -4.4983645753E-01 -7.4130984058E-01  9.1553452302E-01  1.8250120750E-08  0.0000000000E+00  9.0000000000E+00
 21 2 13 0 1015 1014  6.3633810737E-01  4.0261074809E+00  9.5766571693E-02  4.0772096918E+00  5.9604644775E-08  0.0000000000E+00  9.0000000000E+00
 -3 2 13 0 0 1015  3.3122350650E+00  1.6711680113E+01 -4.9013266214E+00  1.7734828896E+01  5.0000000000E-01  0.0000000000E+00  9.0000000000E+00
 1 2 16 0 1016 0 -2.3164891674E+00  2.1576467156E+00 -9.5306421136E-01  3.3224678784E+00  3.3000000000E-01  0.0000000000E+00  9.0000000000E+00
 21 2 16 0 1017 1016 -1.8003393130E-01  1.0013504210E+00  5.4440921849E-01  1.1539047964E+00  1.4901161194E-08  0.0000000000E+00  9.0000000000E+00
 21 2 16 0 1018 1017 -3.4059385691E+00  5.3042416593E+00  6.4066212529E+00  8.9877802040E+00  2.0647654624E-07  0.0000000000E+00  9.0000000000E+00
 -5 2 16 0 0 1018 -2.5343961602E+01  2.7511045808E+01  4.5281775745E+01  5.8929222341E+01  4.8000000000E+00  0.0000000000E+00  9.0000000000E+00
 1 2 17 0 1019 0 -1.4172913749E+01 -2.5637154850E+01 -4.2899098139E+00  2.9608232287E+01  3.3000000000E-01  0.0000000000E+00  9.0000000000E+00
 21 2 17 0 1020 1019 -6.2401977121E+00 -1.1500329303E+01  2.1776600262E+00  1.3264231781E+01  2.9200193200E-07  0.0000000000E+00  9.0000000000E+00
 21 2 18 0 1021 1020  6.5337542447E-01 -5.0864901131E-01  2.8804980367E+00  2.9971473439E+00  7.3000483000E-08  0.0000000000E+00  9.0000000000E+00
 21 2 18 0 1022 1021  9.1771530699E+00  8.3082184077E+00  1.4103451868E+01  1.8765766336E+01  3.3717478809E-07  0.0000000000E+00  9.0000000000E+00
 -2 2 18 0 0 1022  4.4115904345E+00 -2.6385756859E+00  1.9612633396E+00  5.5117751859E+00  3.3000000000E-01  0.0000000000E+00  9.0000000000E+00
 -2 2 18 0 0 1023  1.3762972276E+01 -1.6418221468E+01 -7.1449126266E+00  2.2586192209E+01  3.3000000000E-01  0.0000000000E+00  9.0000000000E+00
 2 2 18 0 1023 0  1.9971721649E+00 -4.7646496772E-01 -1.2001171387E+00  2.4010199225E+00  3.3000000000E-01  0.0000000000E+00  9.0000000000E+00
 92 2 19 22 0 0 -4.3134126920E+01  5.5735654078E+01 -3.2241832101E+01  8.3000763436E+01  2.9708163070E+01  0.0000000000E+00  9.0000000000E+00
 -513 2 42 0 0 0 -2.1398480012E+01  2.8806670756E+01 -2.1528108603E+01  4.2184501679E+01  5.3248000000E+00  0.0000000000E+00  9.0000000000E+00
 -211 1 42 0 0 0 -3.3410573907E+00  4.1064054030E+00 -3.7791992491E+00  6.5059247284E+00  1.3957000000E-01  0.0000000000E+00  9.0000000000E+00
 211 1 42 0 0 0 -1.0510980109E+00  1.8721311630E+00 -1.4752839220E+00  2.6087591984E+00  1.3957000000E-01  0.0000000000E+00  9.0000000000E+00
 115 2 42 0 0 0 -3.3197714375E+00  1.3037323834E+00  1.1112588842E-01  3.7994970657E+00  1.3050779533E+00  0.0000000000E+00  9.0000000000E+00
 -10211 2 42 0 0 0 -3.0597019049E+00  2.4659258586E+00  5.2720583134E-01  4.0879754664E+00  9.9550556921E-01  0.0000000000E+00  9.0000000000E+00
 215 2 42 0 0 0 -4.1213476865E+00  2.6410318933E+00 -5.4054729415E-01  5.1002548471E+00  1.3265941028E+00  0.0000000000E+00  9.0000000000E+00
 -213 2 42 0 0 0 -3.1107269096E+00  1.9104331664E+00  8.1155824674E-01  3.8724036348E+00  1.0052394409E+00  0.0000000000E+00  9.0000000000E+00
 111 2 42 0 0 0 -3.3685601435E-01  4.8635139869E-01 -5.1085570921E-01  7.9322305403E-01  1.3498000000E-01  3.3844946349E-05  9.0000000000E+00
 215 2 42 0 0 0 -3.3249734189E+00  1.1855113139E+01 -5.4529265373E+00  1.3528741329E+01  1.3012602923E+00  0.0000000000E+00  9.0000000000E+00
 111 2 42 0 0 0 -7.0114134200E-02  2.8785891736E-01 -4.0480075298E-01  5.1948243294E-01  1.3498000000E-01  5.1674540927E-05  9.0000000000E+00
 92 2 23 30 0 0  6.4791398281E+01 -4.2838761804E+01 -2.7639626928E+01  1.1512745459E+02  8.0357308438E+01  0.0000000000E+00  9.0000000000E+00
 411 2 53 0 0 0  1.2045643847E+01 -7.9826848795E+00 -4.9057823785E+00  1.5374712251E+01  1.8693000000E+00  3.8445545383E-01  9.0000000000E+00
 10111 2 53 0 0 0  8.2124662574E+00 -7.0193826796E+00 -3.4007789559E+00  1.1367354471E+01  9.6701340843E-01  0.0000000000E+00  9.0000000000E+00
 221 2 53 0 0 0  2.9305742457E+00 -2.1008953917E+00 -1.4476288903E+00  3.9239467074E+00  5.4745000000E-01  0.0000000000E+00  9.0000000000E+00
 -213 2 53 0 0 0  3.1992688248E+00 -3.9734832836E+00 -2.0818432816E+00  5.5612281176E+00  7.5451726851E-01  0.0000000000E+00  9.0000000000E+00
 2214 2 53 0 0 0  6.8169422890E+00 -6.1252538581E+00 -2.2137255225E+00  9.5054412018E+00  1.2097085403E+00  0.0000000000E+00  9.0000000000E+00
 -2214 2 53 0 0 0  1.0490206561E+01 -1.4140194425E+01 -2.7467919792E+00  1.7858141599E+01  1.1742329961E+00  0.0000000000E+00  9.0000000000E+00
 20113 2 53 0 0 0  5.2980143488E+00 -6.5139538640E+00 -1.6437684384E+00  8.6688051890E+00  1.3948683608E+00  0.0000000000E+00  9.0000000000E+00
 223 2 53 0 0 0  7.4435318078E+00 -9.7183369274E+00 -2.6343344665E+00  1.2545758382E+01  7.7723670753E-01  0.0000000000E+00  9.0000000000E+00
 20223 2 53 0 0 0  2.5538923652E+00 -3.9322593079E+00 -3.7686539570E-01  4.8762704833E+00  1.2848956463E+00  0.0000000000E+00  9.0000000000E+00
 2212 1 53 0 0 0  1.2672118617E+00 -1.3204563067E+00  1.2192532215E-01  2.0602541439E+00  9.3827000000E-01  0.0000000000E+00  9.0000000000E+00
 -2112 1 53 0 0 0  6.5536623085E-01 -5.7769111959E-02 -1.8509010169E+00  2.1774913378E+00  9.3957000000E-01  0.0000000000E+00  9.0000000000E+00
 223 2 53 0 0 0  4.7952937673E-01  1.7806334074E+00 -1.1465786903E-01  2.0042448174E+00  7.7668983912E-01  0.0000000000E+00  9.0000000000E+00
 2112 1 53 0 0 0  1.1537466632E+00  6.7633555212E+00 -1.3239414346E+00  7.0505121783E+00  9.3957000000E-01  0.0000000000E+00  9.0000000000E+00
 -3122 2 53 0 0 0  2.2450036014E+00  1.1501919302E+01 -3.0205326214E+00  1.2153293709E+01  1.1156800000E+00  8.8193035234E+01  9.0000000000E+00
 92 2 31 34 0 0 -3.1246423270E+01  3.5974284604E+01  5.1279742005E+01  7.2393375220E+01  1.8458079958E+01  0.0000000000E+00  9.0000000000E+00
 -211 1 68 0 0 0  7.3534452166E-02 -2.9098432116E-02  2.4312599797E-02  1.6224956646E-01  1.3957000000E-01  0.0000000000E+00  9.0000000000E+00
 323 2 68 0 0 0 -9.2394297516E-01  1.0473744335E+00  9.5480875676E-01  1.8861289277E+00  8.3376180332E-01  0.0000000000E+00  9.0000000000E+00
 -321 1 68 0 0 0 -2.5542253265E+00  2.4700437227E+00  3.0634459073E-01  3.6003709502E+00  4.9360000000E-01  0.0000000000E+00  9.0000000000E+00
 3224 2 68 0 0 0 -9.0248311551E-01  2.0151466710E+00  2.6694534382E+00  3.7360737147E+00  1.3989186048E+00  0.0000000000E+00  9.0000000000E+00
 311 2 68 0 0 0 -4.9257639774E-01  9.7695552625E-01  4.8682004187E-01  1.2968202612E+00  4.9767000000E-01  0.0000000000E+00  9.0000000000E+00
 -2212 1 68 0 0 0 -1.5758107563E+00  2.1138838680E+00  3.6580830099E+00  4.6058231020E+00  9.3827000000E-01  0.0000000000E+00  9.0000000000E+00
 523 2 68 0 0 0 -2.4870919151E+01  2.7379978814E+01  4.3179919567E+01  5.7105908697E+01  5.3248000000E+00  0.0000000000E+00  9.0000000000E+00
 92 2 35 39 0 0 -6.1709925322E+00 -3.1976490442E+01  1.6832963457E+01  7.0147152934E+01  5.9805495702E+01  0.0000000000E+00  9.0000000000E+00
 115 2 76 0 0 0 -7.2362879586E+00 -1.3890601191E+01 -2.3382653089E+00  1.5894230728E+01  1.3588307145E+00  0.0000000000E+00  9.0000000000E+00
 -20213 2 76 0 0 0 -7.7736008064E+00 -1.2368348734E+01 -9.6951928248E-01  1.4692977934E+01  1.2404487117E+00  0.0000000000E+00  9.0000000000E+00
 10223 2 76 0 0 0 -1.8581720018E+00 -4.3394510216E+00  4.6444751948E-01  4.8871795236E+00  1.1769340850E+00  0.0000000000E+00  9.0000000000E+00
 223 2 76 0 0 0 -4.0102489265E-01 -9.8536026156E-01  1.0913154441E-01  1.3351879461E+00  7.9941312719E-01  0.0000000000E+00  9.0000000000E+00
 225 2 76 0 0 0 -1.9404396406E+00 -3.6851873485E+00  5.7427629951E-01  4.3887521313E+00  1.2591426484E+00  0.0000000000E+00  9.0000000000E+00
 213 2 76 0 0 0 -2.2951674364E-01 -7.6745032314E-01  1.1707126744E+00  1.6723287594E+00  8.8569598581E-01  0.0000000000E+00  9.0000000000E+00
 -215 2 76 0 0 0 -1.7847397583E-01 -3.6908283361E-01  1.0297652874E+00  1.7863919748E+00  1.4009656107E+00  0.0000000000E+00  9.0000000000E+00
 113 2 76 0 0 0  4.7910474449E-01 -1.2014867515E-01  3.4690294430E-01  7.6157609954E-01  4.6441300832E-01  0.0000000000E+00  9.0000000000E+00
 113 2 76 0 0 0  3.4548063245E-01  6.7528656216E-01  6.6758282209E-01  1.2316011083E+00  7.0413468684E-01  0.0000000000E+00  9.0000000000E+00
 2212 1 76 0 0 0  7.5171413928E-01  9.4117931237E-02  1.1820613484E+00  1.6886538889E+00  9.3827000000E-01  0.0000000000E+00  9.0000000000E+00
 -3122 2 76 0 0 0  2.8962794493E+00  2.5914678320E+00  5.3873806041E+00  6.7359299141E+00  1.1156800000E+00  5.6986660132E+01  9.0000000000E+00
 10333 2 76 0 0 0  1.8284911395E+00  1.2252303736E+00  2.6150965119E+00  3.6937982950E+00  1.4003023824E+00  0.0000000000E+00  9.0000000000E+00
 3122 2 76 0 0 0  1.5457901216E+00  1.1079794515E+00  2.9630936866E+00  3.6934741941E+00  1.1156800000E+00  9.0851085345E+01  9.0000000000E+00
 111 2 76 0 0 0  1.4254363200E+00  2.7224182308E-01  8.2264300857E-01  1.6736025312E+00  1.3498000000E-01  2.2640660039E-05  9.0000000000E+00
 -3214 2 76 0 0 0  2.1911261690E+00  1.2602103975E-01  2.1524620662E+00  3.3681579140E+00  1.3764009575E+00  0.0000000000E+00  9.0000000000E+00
 -321 1 76 0 0 0  1.9831007717E+00 -1.5432050665E+00  6.5519173052E-01  2.6433099916E+00  4.9360000000E-01  0.0000000000E+00  9.0000000000E+00
 92 2 40 41 0 0  1.5760144441E+01 -1.6894686435E+01 -8.3450297653E+00  2.4987212131E+01  4.5725994513E+00  0.0000000000E+00  9.0000000000E+00
 -215 2 93 0 0 0  1.0678750142E+01 -1.2239195030E+01 -5.7640683571E+00  1.7294642805E+01  1.4305894446E+00  0.0000000000E+00  9.0000000000E+00
 111 2 93 0 0 0  6.8769374194E-02 -1.1097351805E-01  5.3615785005E-02  1.9529106825E-01  1.3498000000E-01  5.1067549956E-05  9.0000000000E+00
 -311 2 93 0 0 0  1.5679156455E+00 -1.0925658939E+00 -7.8760597966E-01  2.1260428763E+00  4.9767000000E-01  0.0000000000E+00  9.0000000000E+00
 10323 2 93 0 0 0  3.4447092792E+00 -3.4519519935E+00 -1.8469712136E+00  5.3712353811E+00  1.2871955064E+00  0.0000000000E+00  9.0000000000E+00
 -511 2 43 0 0 0 -2.1382159693E+01  2.8806073808E+01 -2.1522565864E+01  4.2167255488E+01  5.2792000000E+00  2.5616262479E-01  9.0000000000E+00
 22 1 43 0 0 0 -1.6320319229E-02  5.9694800989E-04 -5.5427388503E-03  1.7246191482E-02  6.9849193096E-10  0.0000000000E+00  9.0000000000E+00
 -213 2 46 0 0 0 -3.0178406875E+00  1.0986568961E+00 -1.1789398062E-01  3.3465643790E+00  9.3337278835E-01  0.0000000000E+00  9.0000000000E+00
 211 1 46 0 0 0 -3.0193075007E-01  2.0507548733E-01  2.2901986904E-01  4.5293268667E-01  1.3957000000E-01  0.0000000000E+00  9.0000000000E+00
 221 2 47 0 0 0 -2.0759412482E+00  1.2651584173E+00  4.0472113840E-01  2.5246105817E+00  5.4745000000E-01  0.0000000000E+00  9.0000000000E+00
 -211 1 47 0 0 0 -9.8376065663E-01  1.2007674413E+00  1.2248469294E-01  1.5633648847E+00  1.3957000000E-01  0.0000000000E+00  9.0000000000E+00
 113 2 48 0 0 0 -1.9903143469E+00  1.8314676804E+00 -2.1157656506E-01  2.7927889568E+00  6.6278235526E-01  0.0000000000E+00  9.0000000000E+00
 211 1 48 0 0 0 -2.1310333396E+00  8.0956421283E-01 -3.2897072909E-01  2.3074658903E+00  1.3957000000E-01  0.0000000000E+00  9.0000000000E+00
 -211 1 49 0 0 0 -1.0652972572E-01  2.2333827747E-01 -1.0770723425E-01  3.0382429438E-01  1.3957000000E-01  0.0000000000E+00  9.0000000000E+00
 111 2 49 0 0 0 -3.0041971839E+00  1.6870948889E+00  9.1926548100E-01  3.5685793404E+00  1.3498000000E-01  1.4402995790E-05  9.0000000000E+00
 22 1 50 0 0 0 -1.8922684829E-01  3.8097521961E-01 -3.6317152916E-01  5.5932323183E-01  7.4505805969E-09  0.0000000000E+00  9.0000000000E+00
 22 1 50 0 0 0 -1.4762916606E-01  1.0537617908E-01 -1.4768418005E-01  2.3389982221E-01  4.5625301875E-09  0.0000000000E+00  9.0000000000E+00
 213 2 51 0 0 0 -2.4123936800E+00  7.9008864969E+00 -4.0492943599E+00  9.2325670999E+00  7.7450612358E-01  0.0000000000E+00  9.0000000000E+00
 111 2 51 0 0 0 -9.1257973886E-01  3.9542266416E+00 -1.4036321774E+00  4.2961742287E+00  1.3498000000E-01  5.1566610732E-05  9.0000000000E+00
 22 1 52 0 0 0 -1.6592322163E-02  3.3022829745E-02 -1.5247025076E-01  1.5688527593E-01  0.0000000000E+00  0.0000000000E+00  9.0000000000E+00
 22 1 52 0 0 0 -5.3521812037E-02  2.5483608762E-01 -2.5233050222E-01  3.6259715701E-01  9.1250603750E-09  0.0000000000E+00  9.0000000000E+00
 -13 1 54 0 0 0  1.0920918553E+00 -5.4779575216E-01 -1.0655183006E-01  1.2309598428E+00  1.0566000000E-01  0.0000000000E+00  9.0000000000E+00
 14 1 54 0 0 0  6.1872389696E+00 -3.9711250250E+00 -2.1158216384E+00  7.6503896133E+00 -8.4293697022E-08  0.0000000000E+00  9.0000000000E+00
 -311 2 54 0 0 0  4.7663130222E+00 -3.4637641024E+00 -2.6834089100E+00  6.4933627952E+00  4.9767000000E-01  0.0000000000E+00  9.0000000000E+00
 221 2 55 0 0 0  5.6232977873E+00 -5.0367052591E+00 -2.6378732287E+00  8.0154821779E+00  5.4745000000E-01  0.0000000000E+00  9.0000000000E+00
 111 2 55 0 0 0  2.5891684702E+00 -1.9826774205E+00 -7.6290572721E-01  3.3518722932E+00  1.3498000000E-01  4.8464008051E-05  9.0000000000E+00
 -211 1 56 0 0 0  9.4589268771E-01 -5.3682758639E-01 -4.9168572727E-01  1.2017202143E+00  1.3957000000E-01  0.0000000000E+00  9.0000000000E+00
 211 1 56 0 0 0  6.2218884185E-01 -5.0843442838E-01 -3.8212514329E-01  9.0062419072E-01  1.3957000000E-01  0.0000000000E+00  9.0000000000E+00
 111 2 56 0 0 0  1.3624927161E+00 -1.0556333769E+00 -5.7381801975E-01  1.8216023024E+00  1.3498000000E-01  1.2750011337E-06  9.0000000000E+00
 -211 1 57 0 0 0  2.3902437386E-01 -3.5832832202E-01 -2.2775480449E-02  4.5335454676E-01  1.3957000000E-01  0.0000000000E+00  9.0000000000E+00
 111 2 57 0 0 0  2.9602444509E+00 -3.6151549616E+00 -2.0590678011E+00  5.1078735708E+00  1.3498000000E-01  4.5221675400E-05  9.0000000000E+00
 2212 1 58 0 0 0  6.4809007766E+00 -5.9203136956E+00 -2.1096279685E+00  9.0765119891E+00  9.3827000000E-01  0.0000000000E+00  9.0000000000E+00
 111 2 58 0 0 0  3.3604151244E-01 -2.0494016259E-01 -1.0409755406E-01  4.2892921268E-01  1.3498000000E-01  2.3688211067E-06  9.0000000000E+00
 -2212 1 59 0 0 0  9.2679385508E+00 -1.2226868043E+01 -2.3731334711E+00  1.5553234397E+01  9.3827000000E-01  0.0000000000E+00  9.0000000000E+00
 111 2 59 0 0 0  1.2222680105E+00 -1.9133263812E+00 -3.7365850809E-01  2.3049072024E+00  1.3498000000E-01  2.3477283540E-06  9.0000000000E+00
 213 2 60 0 0 0  1.9294868795E+00 -2.7729949759E+00 -6.1235464351E-01  3.5282755553E+00  8.1322163660E-01  0.0000000000E+00  9.0000000000E+00
 -211 1 60 0 0 0  3.3685274694E+00 -3.7409588880E+00 -1.0314137949E+00  5.1405296337E+00  1.3957000000E-01  0.0000000000E+00  9.0000000000E+00
 -211 1 61 0 0 0  3.7890460914E+00 -4.8620958671E+00 -1.3162608898E+00  6.3046704131E+00  1.3957000000E-01  0.0000000000E+00  9.0000000000E+00
 211 1 61 0 0 0  2.4401812497E+00 -3.5215977361E+00 -8.2054842873E-01  4.3645062327E+00  1.3957000000E-01  0.0000000000E+00  9.0000000000E+00
 111 2 61 0 0 0  1.2143044667E+00 -1.3346433242E+00 -4.9752514799E-01  1.8765817366E+00  1.3498000000E-01  5.3406876193E-05  9.0000000000E+00
 113 2 62 0 0 0  1.1087872329E+00 -1.4532527786E+00 -7.4794639206E-03  1.9167272712E+00  5.7657152472E-01  0.0000000000E+00  9.0000000000E+00
 -211 1 62 0 0 0  4.2465610777E-01 -7.0194102444E-01 -3.5703956763E-01  9.0554461481E-01  1.3957000000E-01  0.0000000000E+00  9.0000000000E+00
 211 1 62 0 0 0  1.0204490245E+00 -1.7770655049E+00 -1.2346364147E-02  2.0539985973E+00  1.3957000000E-01  0.0000000000E+00  9.0000000000E+00
 -211 1 65 0 0 0  8.7262263353E-02  8.3967989220E-01 -2.6337402685E-01  8.9527799419E-01  1.3957000000E-01  0.0000000000E+00  9.0000000000E+00
 211 1 65 0 0 0  1.7733672683E-01  2.2568535660E-01 -5.3302273565E-02  3.2357860271E-01  1.3957000000E-01  0.0000000000E+00  9.0000000000E+00
 111 2 65 0 0 0  2.1493038654E-01  7.1526815864E-01  2.0201843138E-01  7.8538822047E-01  1.3498000000E-01  2.4678116489E-05  9.0000000000E+00
 -2212 1 67 0 0 0  1.9597581209E+00  1.0196522409E+01 -2.7629031043E+00  1.0785346785E+01  9.3827000000E-01  0.0000000000E+00  9.0000000000E+00
 211 1 67 0 0 0  2.8524548051E-01  1.3053968937E+00 -2.5762951711E-01  1.3679469241E+00  1.3957000000E-01  0.0000000000E+00  9.0000000000E+00
 311 2 70 0 0 0 -4.6538619472E-01  3.3664896301E-01  3.4823613355E-01  8.3597886824E-01  4.9767000000E-01  0.0000000000E+00  9.0000000000E+00
 211 1 70 0 0 0 -4.5855678045E-01  7.1072547046E-01  6.0657262322E-01  1.0501500595E+00  1.3957000000E-01  0.0000000000E+00  9.0000000000E+00
 3212 2 72 0 0 0 -8.2963190868E-01  1.7473541296E+00  2.1355748448E+00  3.1183955776E+00  1.1925500000E+00  0.0000000000E+00  9.0000000000E+00
 211 1 72 0 0 0 -7.2851206826E-02  2.6779254147E-01  5.3387859341E-01  6.1767813706E-01  1.3957000000E-01  0.0000000000E+00  9.0000000000E+00
 130 1 73 0 0 0 -4.9257639774E-01  9.7695552625E-01  4.8682004187E-01  1.2968202612E+00  4.9767000000E-01  0.0000000000E+00  9.0000000000E+00
 521 2 75 0 0 0 -2.4796791707E+01  2.7240201825E+01  4.3002286473E+01  5.6868030575E+01  5.2789000000E+00  2.4622696781E-01  9.0000000000E+00
 22 1 75 0 0 0 -7.4127443951E-02  1.3977698942E-01  1.7763309453E-01  2.3787812213E-01  4.5625301875E-09  0.0000000000E+00  9.0000000000E+00
 -213 2 77 0 0 0 -6.0236208742E+00 -1.0878489717E+01 -1.8112787918E+00  1.2601728402E+01  9.4724912613E-01  0.0000000000E+00  9.0000000000E+00
 211 1 77 0 0 0 -1.2126670844E+00 -3.0121114746E+00 -5.2698651705E-01  3.2925023260E+00  1.3957000000E-01  0.0000000000E+00  9.0000000000E+00
 -213 2 78 0 0 0 -3.3411448398E+00 -5.6718358839E+00 -6.5348225096E-01  6.6550646934E+00  7.2792574201E-01  0.0000000000E+00  9.0000000000E+00
 111 2 78 0 0 0 -4.4324559666E+00 -6.6965128504E+00 -3.1603703152E-01  8.0379132402E+00  1.3498000000E-01  3.0681559855E-05  9.0000000000E+00
 113 2 79 0 0 0 -9.5619088870E-01 -2.2742802713E+00 -2.8043885324E-02  2.5764940105E+00  7.4221503522E-01  0.0000000000E+00  9.0000000000E+00
 111 2 79 0 0 0 -9.0198111307E-01 -2.0651707503E+00  4.9249140481E-01  2.3106855131E+00  1.3498000000E-01  5.3847560767E-06  9.0000000000E+00
 211 1 80 0 0 0 -1.3154084333E-01 -3.6651757698E-01  4.8916896019E-02  4.1654624631E-01  1.3957000000E-01  0.0000000000E+00  9.0000000000E+00
 -211 1 80 0 0 0  2.9183978482E-02  7.0009999816E-03  1.4930661526E-01  2.0657436642E-01  1.3957000000E-01  0.0000000000E+00  9.0000000000E+00
 111 2 80 0 0 0 -2.9866802781E-01 -6.2584368456E-01 -8.9091966871E-02  7.1206733340E-01  1.3498000000E-01  1.1383926406E-05  9.0000000000E+00
 -211 1 81 0 0 0 -6.1841920597E-01 -5.4896298221E-01  5.1057847128E-01  9.8182118045E-01  1.3957000000E-01  0.0000000000E+00  9.0000000000E+00
 211 1 81 0 0 0 -1.3220204347E+00 -3.1362243663E+00  6.3697828228E-02  3.4069309508E+00  1.3957000000E-01  0.0000000000E+00  9.0000000000E+00
 211 1 82 0 0 0 -8.4697189153E-02 -6.2736958915E-01  1.2574897795E+00  1.4147531748E+00  1.3957000000E-01  0.0000000000E+00  9.0000000000E+00
 111 2 82 0 0 0 -1.4481955449E-01 -1.4008073399E-01 -8.6777105060E-02  2.5757558456E-01  1.3498000000E-01  1.9217823348E-05  9.0000000000E+00
 113 2 83 0 0 0 -1.0056321671E-01 -6.5627592939E-01  1.0468745178E+00  1.4572681815E+00  7.6607652418E-01  0.0000000000E+00  9.0000000000E+00
 -211 1 83 0 0 0 -7.7910759124E-02  2.8719309578E-01 -1.7109230351E-02  3.2912379330E-01  1.3957000000E-01  0.0000000000E+00  9.0000000000E+00
 -211 1 84 0 0 0  1.3852588846E-01 -1.0814355253E-01 -3.9414042939E-02  2.2785456196E-01  1.3957000000E-01  0.0000000000E+00  9.0000000000E+00
 211 1 84 0 0 0  3.4057885602E-01 -1.2005122624E-02  3.8631698724E-01  5.3372153757E-01  1.3957000000E-01  0.0000000000E+00  9.0000000000E+00
 -211 1 85 0 0 0  9.6752620777E-02  6.8566272030E-01  6.2472071922E-01  9.4300063498E-01  1.3957000000E-01  0.0000000000E+00  9.0000000000E+00
 211 1 85 0 0 0  2.4872801167E-01 -1.0376158141E-02  4.2862102870E-02  2.8860047334E-01  1.3957000000E-01  0.0000000000E+00  9.0000000000E+00
 -2212 1 87 0 0 0  2.4507472626E+00  2.0712577223E+00  4.5175841119E+00  5.6200700617E+00  9.3827000000E-01  0.0000000000E+00  9.0000000000E+00
 211 1 87 0 0 0  4.4553218669E-01  5.2021010969E-01  8.6979649214E-01  1.1158598524E+00  1.3957000000E-01  0.0000000000E+00  9.0000000000E+00
 -323 2 88 0 0 0  1.0728310634E+00  6.7573931108E-01  1.4048304365E+00  2.0871410473E+00  8.8035168477E-01  0.0000000000E+00  9.0000000000E+00
 321 1 88 0 0 0  7.5566007617E-01  5.4949106256E-01  1.2102660753E+00  1.6066572477E+00  4.9360000000E-01  0.0000000000E+00  9.0000000000E+00
 2212 1 89 0 0 0  1.2404804905E+00  9.7828132372E-01  2.3569274462E+00  2.9885253513E+00  9.3827000000E-01  0.0000000000E+00  9.0000000000E+00
 -211 1 89 0 0 0  3.0530963104E-01  1.2969812774E-01  6.0616624034E-01  7.0494884281E-01  1.3957000000E-01  0.0000000000E+00  9.0000000000E+00
 22 1 90 0 0 0  4.3260034456E-01  1.4222896682E-01  2.8256777331E-01  5.3592600575E-01 -1.0536712128E-08  0.0000000000E+00  9.0000000000E+00
 22 1 90 0 0 0  9.9283597545E-01  1.3001285626E-01  5.4007523525E-01  1.1376765255E+00 -1.4901161194E-08  0.0000000000E+00  9.0000000000E+00
 -3122 2 91 0 0 0  1.9849127770E+00  2.2928458603E-02  2.0964433012E+00  3.0951931804E+00  1.1156800000E+00  3.2333708317E+01  9.0000000000E+00
 111 2 91 0 0 0  2.0621339204E-01  1.0309258115E-01  5.6018765022E-02  2.7296473358E-01  1.3498000000E-01  1.1893913894E-05  9.0000000000E+00
 113 2 94 0 0 0  5.7205034694E+00 -6.0366780765E+00 -3.2230384235E+00  8.9560734116E+00  8.1094520897E-01  0.0000000000E+00  9.0000000000E+00
 -211 1 94 0 0 0  4.9582466729E+00 -6.2025169535E+00 -2.5410299335E+00  8.3385693938E+00  1.3957000000E-01  0.0000000000E+00  9.0000000000E+00
 22 1 95 0 0 0  9.9836891553E-02 -4.0236506245E-02  1.4243450648E-02  1.0857834607E-01  3.4846899908E-09  0.0000000000E+00  9.0000000000E+00
 22 1 95 0 0 0 -3.1067517360E-02 -7.0737011803E-02  3.9372334357E-02  8.6712722172E-02  2.2812650937E-09  0.0000000000E+00  9.0000000000E+00
 130 1 96 0 0 0  1.5679156455E+00 -1.0925658939E+00 -7.8760597966E-01  2.1260428763E+00  4.9767000000E-01  0.0000000000E+00  9.0000000000E+00
 311 2 97 0 0 0  1.9849410002E+00 -1.9215491714E+00 -9.5672531766E-01  2.9656939752E+00  4.9767000000E-01  0.0000000000E+00  9.0000000000E+00
 213 2 97 0 0 0  1.4597682790E+00 -1.5304028221E+00 -8.9024589594E-01  2.4055414059E+00  7.2182786994E-01  0.0000000000E+00  9.0000000000E+00
 10413 2 98 0 0 0 -1.0649660902E+01  1.6892619259E+01 -1.2210519706E+01  2.3532534190E+01  2.4305372161E+00  0.0000000000E+00  9.0000000000E+00
 -321 1 98 0 0 0 -6.4833889064E+00  6.5500386343E+00 -4.9940826117E+00  1.0493895364E+01  4.9360000000E-01  0.0000000000E+00  9.0000000000E+00
 313 2 98 0 0 0 -4.2491098851E+00  5.3634159143E+00 -4.3179635466E+00  8.1408259337E+00  8.9837219878E-01  0.0000000000E+00  9.0000000000E+00
 -211 1 100 0 0 0 -4.5848020147E-01  3.0820661190E-01 -3.2598352527E-01  6.5646055053E-01  1.3957000000E-01  0.0000000000E+00  9.0000000000E+00
 111 2 100 0 0 0 -2.5593604860E+00  7.9045028418E-01  2.0808954465E-01  2.6901038285E+00  1.3498000000E-01  6.0293553874E-07  9.0000000000E+00
 22 1 102 0 0 0 -6.3758668037E-01  6.3227516253E-01 -1.5103410540E-02  8.9806278687E-01 -2.3560804577E-08  0.0000000000E+00  9.0000000000E+00
 22 1 102 0 0 0 -1.4383545679E+00  6.3288325474E-01  4.1982454894E-01  1.6265477948E+00 -4.2146848511E-08  0.0000000000E+00  9.0000000000E+00
 211 1 104 0 0 0 -5.8290452247E-01  7.8177137764E-01  1.4514742898E-01  9.9573677760E-01  1.3957000000E-01  0.0000000000E+00  9.0000000000E+00
 -211 1 104 0 0 0 -1.4074098244E+00  1.0496963028E+00 -3.5672399404E-01  1.7970521792E+00  1.3957000000E-01  0.0000000000E+00  9.0000000000E+00
 22 1 107 0 0 0 -2.2308728965E+00  1.2608550299E+00  6.2277234290E-01  2.6371186317E+00  0.0000000000E+00  0.0000000000E+00  9.0000000000E+00
 22 1 107 0 0 0 -7.7332428742E-01  4.2623985902E-01  2.9649313809E-01  9.3146070871E-01  1.0536712128E-08  0.0000000000E+00  9.0000000000E+00
 211 1 110 0 0 0 -2.1241500328E+00  6.1825196197E+00 -2.9993735538E+00  7.1938365085E+00  1.3957000000E-01  0.0000000000E+00  9.0000000000E+00
 111 2 110 0 0 0 -2.8824364719E-01  1.7183668772E+00 -1.0499208061E+00  2.0387305914E+00  1.3498000000E-01  1.1844904820E-05  9.0000000000E+00
 22 1 111 0 0 0 -2.3927782666E-02  2.2141627045E-01 -6.0724666624E-02  2.3083584804E-01 -3.7252902985E-09  0.0000000000E+00  9.0000000000E+00
 22 1 111 0 0 0 -8.8865195619E-01  3.7328103712E+00 -1.3429075108E+00  4.0653383806E+00  5.9604644775E-08  0.0000000000E+00  9.0000000000E+00
 310 2 116 0 0 0  4.7663130222E+00 -3.4637641024E+00 -2.6834089100E+00  6.4933627952E+00  4.9767000000E-01  8.6016313407E+00  9.0000000000E+00
 -211 1 117 0 0 0  2.9659826329E+00 -2.6251725286E+00 -1.5163703576E+00  4.2435177188E+00  1.3957000000E-01  0.0000000000E+00  9.0000000000E+00
 211 1 117 0 0 0  1.5150980407E+00 -1.3115144270E+00 -5.7903341816E-01  2.0905386027E+00  1.3957000000E-01  0.0000000000E+00  9.0000000000E+00
 111 2 117 0 0 0  1.1422171137E+00 -1.1000183036E+00 -5.4246945295E-01  1.6814258565E+00  1.3498000000E-01  4.4888149781E-06  9.0000000000E+00
 22 1 118 0 0 0  2.4378990246E+00 -1.8608222092E+00 -7.4943501955E-01  3.1571607176E+00  0.0000000000E+00  0.0000000000E+00  9.0000000000E+00
 22 1 118 0 0 0  1.5126944561E-01 -1.2185521129E-01 -1.3470707659E-02  1.9471157556E-01 -3.7252902985E-09  0.0000000000E+00  9.0000000000E+00
 22 1 121 0 0 0  1.1833739767E+00 -8.6340240609E-01 -4.6139406624E-01  1.5358131944E+00  2.1073424255E-08  0.0000000000E+00  9.0000000000E+00
 22 1 121 0 0 0  1.7911873936E-01 -1.9223097083E-01 -1.1242395351E-01  2.8578910802E-01  6.4523920699E-09  0.0000000000E+00  9.0000000000E+00
 22 1 123 0 0 0  2.8211252593E+00 -3.4467870175E+00 -1.9308672626E+00  4.8546201559E+00  5.9604644775E-08  0.0000000000E+00  9.0000000000E+00
 22 1 123 0 0 0  1.3911919159E-01 -1.6836794413E-01 -1.2820053853E-01  2.5325341489E-01  3.7252902985E-09  0.0000000000E+00  9.0000000000E+00
 22 1 125 0 0 0  9.7186536951E-02 -8.7021930702E-02 -9.6814303849E-02  1.6245322040E-01 -4.1650011716E-09  0.0000000000E+00  9.0000000000E+00
 22 1 125 0 0 0  2.3885497549E-01 -1.1791823189E-01 -7.2832502129E-03  2.6647599228E-01 -5.2683560639E-09  0.0000000000E+00  9.0000000000E+00
 22 1 127 0 0 0  6.4444522383E-01 -1.1316074765E+00 -2.0442873530E-01  1.3181943086E+00  2.5809568280E-08  0.0000000000E+00  9.0000000000E+00
 22 1 127 0 0 0  5.7782278666E-01 -7.8171890471E-01 -1.6922977278E-01  9.8671289379E-01  1.4901161194E-08  0.0000000000E+00  9.0000000000E+00
 211 1 128 0 0 0  4.4954148850E-01 -6.9220884303E-01  1.7022392510E-01  8.5422280572E-01  1.3957000000E-01  0.0000000000E+00  9.0000000000E+00
 111 2 128 0 0 0  1.4799453910E+00 -2.0807861329E+00 -7.8257856861E-01  2.6740527496E+00  1.3498000000E-01  3.6081370959E-06  9.0000000000E+00
 22 1 132 0 0 0  2.8258506845E-01 -2.7127891373E-01 -1.5935447645E-01  4.2289528150E-01  1.1780402288E-08  0.0000000000E+00  9.0000000000E+00
 22 1 132 0 0 0  9.3171939826E-01 -1.0633644105E+00 -3.3817067154E-01  1.4536864551E+00  4.2146848511E-08  0.0000000000E+00  9.0000000000E+00
 211 1 133 0 0 0  9.2624910175E-01 -8.4347684578E-01  5.7822686944E-02  1.2618295590E+00  1.3957000000E-01  0.0000000000E+00  9.0000000000E+00
 -211 1 133 0 0 0  1.8253813117E-01 -6.0977593286E-01 -6.5302150865E-02  6.5489771219E-01  1.3957000000E-01  0.0000000000E+00  9.0000000000E+00
 22 1 138 0 0 0  1.4678613903E-01  6.3412766873E-01  1.5297677428E-01  6.6862991582E-01  0.0000000000E+00  0.0000000000E+00  9.0000000000E+00
 22 1 138 0 0 0  6.8144247514E-02  8.1140489912E-02  4.9041657099E-02  1.1675830464E-01  2.2812650937E-09  0.0000000000E+00  9.0000000000E+00
 310 2 141 0 0 0 -4.6538619472E-01  3.3664896301E-01  3.4823613355E-01  8.3597886824E-01  4.9767000000E-01  4.9229156218E+00  9.0000000000E+00
 3122 2 143 0 0 0 -7.8350613846E-01  1.6554856656E+00  2.1178929442E+00  3.0140880948E+00  1.1156800000E+00  8.5861840589E+01  9.0000000000E+00
 22 1 143 0 0 0 -4.6125770217E-02  9.1868463968E-02  1.7681900650E-02  1.0430748276E-01  2.6341780319E-09  0.0000000000E+00  9.0000000000E+00
 14 1 146 0 0 0 -9.5616638359E+00  7.9465410302E+00  1.5653926378E+01  1.9990456241E+01  4.1295309247E-07  0.0000000000E+00  9.0000000000E+00
 -13 1 146 0 0 0 -2.2698973012E+00  3.4719822302E+00  3.7600037451E+00  5.5996327168E+00  1.0566000000E-01  0.0000000000E+00  9.0000000000E+00
 -421 2 146 0 0 0 -1.2965230570E+01  1.5821678565E+01  2.3588356350E+01  3.1277941618E+01  1.8645000000E+00  1.5271988985E-01  9.0000000000E+00
 -211 1 148 0 0 0 -3.4482108404E+00 -5.4796271006E+00 -6.6660176511E-01  6.5100160415E+00  1.3957000000E-01  0.0000000000E+00  9.0000000000E+00
 111 2 148 0 0 0 -2.5754100338E+00 -5.3988626160E+00 -1.1446770267E+00  6.0917123606E+00  1.3498000000E-01  1.9864144707E-06  9.0000000000E+00
 -211 1 150 0 0 0 -2.9030984175E+00 -5.0432003668E+00 -7.5860671607E-01  5.8699926998E+00  1.3957000000E-01  0.0000000000E+00  9.0000000000E+00
 111 2 150 0 0 0 -4.3804642235E-01 -6.2863551714E-01  1.0512446511E-01  7.8507199358E-01  1.3498000000E-01  2.8984440585E-06  9.0000000000E+00
 22 1 151 0 0 0 -2.9257553132E+00 -4.3225479343E+00 -2.4063277602E-01  5.2251668806E+00  1.1920928955E-07  0.0000000000E+00  9.0000000000E+00
 22 1 151 0 0 0 -1.5067006534E+00 -2.3739649162E+00 -7.5404255500E-02  2.8127463597E+00  4.2146848511E-08  0.0000000000E+00  9.0000000000E+00
 211 1 152 0 0 0 -4.9903839587E-01 -5.8219276486E-01 -2.1437332528E-01  8.0834611616E-01  1.3957000000E-01  0.0000000000E+00  9.0000000000E+00
 -211 1 152 0 0 0 -4.5715249283E-01 -1.6920875064E+00  1.8632943995E-01  1.7681478943E+00  1.3957000000E-01  0.0000000000E+00  9.0000000000E+00
 22 1 153 0 0 0 -5.1241926307E-01 -1.0872067277E+00  3.2173520828E-01  1.2442288834E+00  2.5809568280E-08  0.0000000000E+00  9.0000000000E+00
 22 1 153 0 0 0 -3.8956185000E-01 -9.7796402259E-01  1.7075619652E-01  1.0664566297E+00  0.0000000000E+00  0.0000000000E+00  9.0000000000E+00
 22 1 156 0 0 0 -1.7159995875E-01 -4.5572455315E-01 -1.7862583171E-02  4.8728891437E-01  5.2683560639E-09  0.0000000000E+00  9.0000000000E+00
 -11 1 156 0 0 0 -4.2576950328E-02 -6.1425677253E-02 -3.4332297789E-02  8.2248874137E-02  5.1000000000E-04  0.0000000000E+00  9.0000000000E+00
 11 1 156 0 0 0 -8.4491118726E-02 -1.0869345415E-01 -3.6897085910E-02  1.4252954490E-01  5.1000000001E-04  0.0000000000E+00  9.0000000000E+00
 22 1 160 0 0 0 -6.6732813153E-02 -1.2170775029E-01 -1.0651795548E-01  1.7496319519E-01  1.8626451492E-09  0.0000000000E+00  9.0000000000E+00
 22 1 160 0 0 0 -7.8086741334E-02 -1.8372983703E-02  1.9740850416E-02  8.2612389370E-02  1.6130980175E-09  0.0000000000E+00  9.0000000000E+00
 211 1 161 0 0 0 -1.6834092653E-02 -2.1143625360E-01  9.3729720617E-01  9.7107904601E-01  1.3957000000E-01  0.0000000000E+00  9.0000000000E+00
 -211 1 161 0 0 0 -8.3729124058E-02 -4.4483967580E-01  1.0957731159E-01  4.8618913552E-01  1.3957000000E-01  0.0000000000E+00  9.0000000000E+00
 -321 1 169 0 0 0  4.4267160425E-01  5.6291935677E-01  6.3525928716E-01  1.0770476653E+00  4.9360000000E-01  0.0000000000E+00  9.0000000000E+00
 111 2 169 0 0 0  6.3015945910E-01  1.1281995431E-01  7.6957114936E-01  1.0100933820E+00  1.3498000000E-01  3.9313071606E-05  9.0000000000E+00
 -2112 1 175 0 0 0  1.6747731462E+00  9.1095893031E-02  1.8735104754E+00  2.6843987855E+00  9.3957000000E-01  0.0000000000E+00  9.0000000000E+00
 111 2 175 0 0 0  3.1013963078E-01 -6.8167434428E-02  2.2293282573E-01  4.1079439491E-01  1.3498000000E-01  3.5277762141E-05  9.0000000000E+00
 22 1 176 0 0 0  1.7383485687E-01  3.2030045347E-02 -1.6729356923E-04  1.7676116445E-01 -2.6341780319E-09  0.0000000000E+00  9.0000000000E+00
 22 1 176 0 0 0  3.2378535163E-02  7.1062535802E-02  5.6186058591E-02  9.6203569133E-02  1.3170890160E-09  0.0000000000E+00  9.0000000000E+00
 211 1 177 0 0 0  2.9035267698E+00 -3.4690147497E+00 -1.4729243580E+00  4.7595710926E+00  1.3957000000E-01  0.0000000000E+00  9.0000000000E+00
 -211 1 177 0 0 0  2.8169766996E+00 -2.5676633268E+00 -1.7501140655E+00  4.1965023190E+00  1.3957000000E-01  0.0000000000E+00  9.0000000000E+00
 130 1 182 0 0 0  1.9849410002E+00 -1.9215491714E+00 -9.5672531766E-01  2.9656939752E+00  4.9767000000E-01  0.0000000000E+00  9.0000000000E+00
 211 1 183 0 0 0  2.3141449864E-02 -1.6885954081E-01 -2.2034480572E-01  3.1157774236E-01  1.3957000000E-01  0.0000000000E+00  9.0000000000E+00
 111 2 183 0 0 0  1.4366268291E+00 -1.3615432813E+00 -6.6990109023E-01  2.0939636635E+00  1.3498000000E-01  1.3512643838E-05  9.0000000000E+00
 413 2 184 0 0 0 -7.6418881397E+00  1.2387813469E+01 -9.1524209932E+00  1.7310785278E+01  2.0100000000E+00  0.0000000000E+00  9.0000000000E+00
 111 2 184 0 0 0 -3.0077727618E+00  4.5048057898E+00 -3.0580987127E+00  6.2217489123E+00  1.3498000000E-01  1.1019097441E-04  9.0000000000E+00
 311 2 186 0 0 0 -3.7752471371E+00  4.4248538739E+00 -3.5589795750E+00  6.8370924958E+00  4.9767000000E-01  0.0000000000E+00  9.0000000000E+00
 111 2 186 0 0 0 -4.7386274803E-01  9.3856204047E-01 -7.5898397157E-01  1.3037334380E+00  1.3498000000E-01  1.6734184352E-06  9.0000000000E+00
 22 1 188 0 0 0 -4.1677062230E-03 -3.9688810920E-03 -1.8423400698E-03  6.0428477737E-03 -1.6627433776E-09  0.0000000000E+00  9.0000000000E+00
 22 1 188 0 0 0 -2.5551927798E+00  7.9441916527E-01  2.0993188472E-01  2.6840609807E+00  2.9802322388E-08  0.0000000000E+00  9.0000000000E+00
 22 1 196 0 0 0 -2.7783128011E-01  1.4668991470E+00 -9.3876797491E-01  1.7635953726E+00  4.7121609154E-08  0.0000000000E+00  9.0000000000E+00
 22 1 196 0 0 0 -1.0412367084E-02  2.5146773020E-01 -1.1115283123E-01  2.7513521878E-01 -3.7252902985E-09  0.0000000000E+00  9.0000000000E+00
 -211 1 199 0 0 0  3.2576865467E+00 -2.5307872594E+00 -2.0092066113E+00  4.5906205224E+00  1.3957000000E-01  0.0000000000E+00  9.0000000000E+00
 211 1 199 0 0 0  1.5086264755E+00 -9.3297684300E-01 -6.7420229870E-01  1.9027422728E+00  1.3957000000E-01  0.0000000000E+00  9.0000000000E+00
 22 1 202 0 0 0  3.3775457095E-01 -2.4320555727E-01 -1.3754860693E-01  4.3834542607E-01  0.0000000000E+00  0.0000000000E+00  9.0000000000E+00
 22 1 202 0 0 0  8.0446254279E-01 -8.5681274632E-01 -4.0492084602E-01  1.2430804304E+00 -1.4901161194E-08  0.0000000000E+00  9.0000000000E+00
 22 1 214 0 0 0  9.1416272256E-01 -1.3840338881E+00 -4.7678403904E-01  1.7258523421E+00  2.1073424255E-08  0.0000000000E+00  9.0000000000E+00
 22 1 214 0 0 0  5.6578266840E-01 -6.9675224477E-01 -3.0579452957E-01  9.4820040749E-01  1.0536712128E-08  0.0000000000E+00  9.0000000000E+00
 111 2 221 0 0 0 -3.8335934489E-01  2.1526633418E-02  2.0180305341E-01  4.5428169238E-01  1.3498000000E-01  3.8149703422E-06  9.0000000000E+00
 111 2 221 0 0 0 -8.2026849823E-02  3.1512232959E-01  1.4643308013E-01  3.8169717586E-01  1.3498000000E-01  4.6763945939E-05  9.0000000000E+00
 2212 1 222 0 0 0 -6.7300284918E-01  1.2931611922E+00  1.8104978478E+00  2.5066814225E+00  9.3827000000E-01  0.0000000000E+00  9.0000000000E+00
 -211 1 222 0 0 0 -1.1050328929E-01  3.6232447340E-01  3.0739509635E-01  5.0740667233E-01  1.3957000000E-01  0.0000000000E+00  9.0000000000E+00
 321 1 226 0 0 0 -3.7586464023E+00  4.7327663216E+00  7.2444200259E+00  9.4473150844E+00  4.9360000000E-01  0.0000000000E+00  9.0000000000E+00
 -211 1 226 0 0 0 -4.9833670895E+00  6.6740386180E+00  9.4541249964E+00  1.2600662612E+01  1.3957000000E-01  0.0000000000E+00  9.0000000000E+00
 111 2 226 0 0 0 -3.5330978113E+00  3.8577090111E+00  6.0749480418E+00  8.0179743246E+00  1.3498000000E-01  1.2804186364E-06  9.0000000000E+00
 111 2 226 0 0 0 -6.9011926669E-01  5.5716461393E-01  8.1486328554E-01  1.2119895972E+00  1.3498000000E-01  2.9743786810E-05  9.0000000000E+00
 22 1 228 0 0 0 -2.1222685814E+00 -4.5479375130E+00 -9.8603963751E-01  5.1146880375E+00 -1.0323827312E-07  0.0000000000E+00  9.0000000000E+00
 22 1 228 0 0 0 -4.5314145242E-01 -8.5092510300E-01 -1.5863738919E-01  9.7702432317E-01 -2.7877519926E-08  0.0000000000E+00  9.0000000000E+00
 22 1 230 0 0 0 -2.9710767476E-01 -3.2448997432E-01  9.2735616325E-02  4.4962941226E-01  1.0536712128E-08  0.0000000000E+00  9.0000000000E+00
 22 1 230 0 0 0 -1.4093874759E-01 -3.0414554282E-01  1.2388848790E-02  3.3544258133E-01  9.1250603750E-09  0.0000000000E+00  9.0000000000E+00
 22 1 245 0 0 0 -3.2805999616E-03  1.2495303069E-02  1.5128785783E-02  1.9894096967E-02  1.8915250908E-09  0.0000000000E+00  9.0000000000E+00
 22 1 245 0 0 0  6.3344005906E-01  1.0032465124E-01  7.5444236358E-01  9.9019928501E-01  2.1073424255E-08  0.0000000000E+00  9.0000000000E+00
 22 1 247 0 0 0  1.1489118408E-01 -7.6726252505E-02  1.4531997248E-01  2.0051133734E-01  2.6341780319E-09  0.0000000000E+00  9.0000000000E+00
 22 1 247 0 0 0  1.9524844671E-01  8.5588180770E-03  7.7612853249E-02  2.1028305756E-01 -3.7252902985E-09  0.0000000000E+00  9.0000000000E+00
 22 1 254 0 0 0  7.3070505554E-01 -6.4628246238E-01 -3.9178340792E-01  1.0512398100E+00 -2.1073424255E-08  0.0000000000E+00  9.0000000000E+00
 22 1 254 0 0 0  7.0592177361E-01 -7.1526081891E-01 -2.7811768230E-01  1.0427238535E+00 -1.4901161194E-08  0.0000000000E+00  9.0000000000E+00
 421 2 255 0 0 0 -7.1551947406E+00  1.1557283585E+01 -8.5099972149E+00  1.6145093016E+01  1.8645000000E+00  3.2863881761E-02  9.0000000000E+00
 211 1 255 0 0 0 -4.8669339915E-01  8.3052988402E-01 -6.4242377837E-01  1.1656922617E+00  1.3957000000E-01  0.0000000000E+00  9.0000000000E+00
 22 1 256 0 0 0 -2.5242015899E+00  3.8108722627E+00 -2.6328691187E+00  5.2750678541E+00  5.9604644775E-08  0.0000000000E+00  9.0000000000E+00
 22 1 256 0 0 0 -4.8357117187E-01  6.9393352712E-01 -4.2522959406E-01  9.4668105822E-01  2.1073424255E-08  0.0000000000E+00  9.0000000000E+00
 130 1 257 0 0 0 -3.7752471371E+00  4.4248538739E+00 -3.5589795750E+00  6.8370924958E+00  4.9767000000E-01  0.0000000000E+00  9.0000000000E+00
 22 1 258 0 0 0 -3.3535868777E-02  8.1255276958E-02 -2.2399801528E-02  9.0712874702E-02 -1.8626451492E-09  0.0000000000E+00  9.0000000000E+00
 22 1 258 0 0 0 -4.4032687925E-01  8.5730676351E-01 -7.3658417005E-01  1.2130205633E+00 -3.3320009373E-08  0.0000000000E+00  9.0000000000E+00
 22 1 269 0 0 0 -9.3907818706E-02  5.0109176581E-02  1.0020958040E-01  1.4619017749E-01  6.4523920699E-09  0.0000000000E+00  9.0000000000E+00
 22 1 269 0 0 0 -2.8945152619E-01 -2.8582543162E-02  1.0159347302E-01  3.0809151489E-01  1.1780402288E-08  0.0000000000E+00  9.0000000000E+00
 22 1 270 0 0 0 -3.2859743019E-02  1.5175652879E-01 -2.4074989915E-03  1.5529199204E-01  5.2683560639E-09  0.0000000000E+00  9.0000000000E+00
 22 1 270 0 0 0 -4.9167106805E-02  1.6336580081E-01  1.4884057912E-01  2.2640518382E-01  7.4505805969E-09  0.0000000000E+00  9.0000000000E+00
 22 1 275 0 0 0 -2.4875367728E+00  2.6261204962E+00  4.1778975107E+00  5.5262261686E+00  1.0323827312E-07  0.0000000000E+00  9.0000000000E+00
 22 1 275 0 0 0 -1.0455610386E+00  1.2315885149E+00  1.8970505310E+00  2.4917481559E+00  4.2146848511E-08  0.0000000000E+00  9.0000000000E+00
 22 1 276 0 0 0 -4.1051332444E-01  2.5132681976E-01  4.7209234684E-01  6.7420882805E-01  2.2351741791E-08  0.0000000000E+00  9.0000000000E+00
 22 1 276 0 0 0 -2.7960594225E-01  3.0583779417E-01  3.4277093869E-01  5.3778076917E-01  1.8250120750E-08  0.0000000000E+00  9.0000000000E+00
 -311 2 287 0 0 0 -1.9909156342E+00  2.8322446181E+00 -2.2327135522E+00  4.1494626007E+00  4.9767000000E-01  0.0000000000E+00  9.0000000000E+00
 113 2 287 0 0 0 -3.1550774977E+00  5.1401220308E+00 -3.5932286230E+00  7.0581547095E+00  7.2862024316E-01  0.0000000000E+00  9.0000000000E+00
 111 2 287 0 0 0 -9.9797274392E-01  1.6525651910E+00 -1.0820776130E+00  2.2172128606E+00  1.3498000000E-01  5.6861015331E-06  9.0000000000E+00
 111 2 287 0 0 0 -4.2891497888E-01  7.9468042193E-01 -6.8758176619E-01  1.1430106376E+00  1.3498000000E-01  1.7824458786E-06  9.0000000000E+00
 111 2 287 0 0 0 -5.8231388593E-01  1.1376713233E+00 -9.1439566055E-01  1.5772522075E+00  1.3498000000E-01  2.5790833671E-05  9.0000000000E+00
 130 1 302 0 0 0 -1.9909156342E+00  2.8322446181E+00 -2.2327135522E+00  4.1494626007E+00  4.9767000000E-01  0.0000000000E+00  9.0000000000E+00
 -211 1 303 0 0 0 -9.1991248864E-01  1.0183985036E+00 -9.3524017662E-01  1.6665918732E+00  1.3957000000E-01  0.0000000000E+00  9.0000000000E+00
 211 1 303 0 0 0 -2.2351650090E+00  4.1217235272E+00 -2.6579884463E+00  5.3915628364E+00  1.3957000000E-01  0.0000000000E+00  9.0000000000E+00
 22 1 304 0 0 0 -1.5593313788E-01  2.5491004181E-01 -1.1328131593E-01  3.1957304243E-01 -8.3300023433E-09  0.0000000000E+00  9.0000000000E+00
 22 1 304 0 0 0 -8.4203960604E-01  1.3976551492E+00 -9.6879629704E-01  1.8976398181E+00  0.0000000000E+00  0.0000000000E+00  9.0000000000E+00
 22 1 305 0 0 0 -3.4054918051E-01  7.0947351535E-01 -5.5942231896E-01  9.6554634497E-01 -2.1073424255E-08  0.0000000000E+00  9.0000000000E+00
 22 1 305 0 0 0 -8.8365798375E-02  8.5206906577E-02 -1.2815944723E-01  1.7746429265E-01  0.0000000000E+00  0.0000000000E+00  9.0000000000E+00
 22 1 306 0 0 0 -1.8453058347E-01  4.4700187973E-01 -2.8195667287E-01  5.5978726503E-01  0.0000000000E+00  0.0000000000E+00  9.0000000000E+00
 22 1 306 0 0 0 -3.9778330247E-01  6.9066944360E-01 -6.3243898768E-01  1.0174649425E+00 -2.1073424255E-08  0.0000000000E+00  9.0000000000E+00
<weights>1.0196990146E+06</weights>
</event>
<event>
 281 1  1.0000000000E+00  3.6396064099E+02 -1.0000000000E+00  1.1780000000E-01
 11 -9 0 0 0 0  0.0000000000E+00  0.0000000000E+00  1.8250000000E+02  1.8250000000E+02  5.1099700000E-04  0.0000000000E+00  9.0000000000E+00
 -11 -9 0 0 0 0  0.0000000000E+00  0.0000000000E+00 -1.8250000000E+02  1.8250000000E+02  5.1099700000E-04  0.0000000000E+00  9.0000000000E+00
 11 2 1 2 0 0  0.0000000000E+00  0.0000000000E+00  1.8199175884E+02  1.8199175884E+02  5.1099859771E-04  0.0000000000E+00  9.0000000000E+00
 -11 2 1 2 0 0  0.0000000000E+00  0.0000000000E+00 -1.8246131439E+02  1.8246131439E+02  5.1099859771E-04  0.0000000000E+00  9.0000000000E+00
 11 -1 3 0 0 0  0.0000000000E+00  0.0000000000E+00  1.8150059456E+02  1.8150059456E+02  5.1099700000E-04  0.0000000000E+00  9.0000000000E+00
 -11 -1 4 0 0 0  0.0000000000E+00  0.0000000000E+00 -1.8246131439E+02  1.8246131439E+02  5.1099700000E-04  0.0000000000E+00  9.0000000000E+00
 22 1 3 0 0 0  0.0000000000E+00  0.0000000000E+00  4.9116427490E-01  4.9116427490E-01  0.0000000000E+00  0.0000000000E+00  9.0000000000E+00
 22 1 4 0 0 0  0.0000000000E+00  0.0000000000E+00 -6.2694307016E-13  6.2694307016E-13  0.0000000000E+00  0.0000000000E+00  9.0000000000E+00
 6 2 5 6 501 0 -3.2414443629E+01 -3.9422488922E-01 -4.6332187874E+01  1.8210198572E+02  1.7310000000E+02  0.0000000000E+00  9.0000000000E+00
 -6 2 5 6 0 501  3.2414443629E+01  3.9422488922E-01  4.5371468044E+01  1.8185992324E+02  1.7310000000E+02  0.0000000000E+00  9.0000000000E+00
 24 2 9 0 0 0 -4.5905989434E+00  1.5705897252E+01 -9.3043384993E+01  1.2519542896E+02  8.2152754875E+01  0.0000000000E+00  9.0000000000E+00
 5 2 9 0 1000 0 -2.7823844686E+01 -1.6100122141E+01  4.6711197119E+01  5.6906556761E+01  4.8000000000E+00  0.0000000000E+00  9.0000000000E+00
 -15 2 11 0 0 0  1.6422339239E+01 -1.8698821806E+01 -6.7280074431E-01  2.4958957367E+01  1.7770000000E+00  0.0000000000E+00  9.0000000000E+00
 16 2 11 0 0 0 -2.1274308744E+01  3.3846309852E+01 -8.9697731133E+01  9.8203115397E+01  1.3486991523E-06  0.0000000000E+00  9.0000000000E+00
 -24 2 10 0 0 0 -9.4821928333E-01  6.3218547920E+01  2.3632294743E+01  1.0732406277E+02  8.3441507495E+01  0.0000000000E+00  9.0000000000E+00
 -5 2 10 0 1001 1000  3.3362662912E+01 -6.2824323031E+01  2.1739173301E+01  7.4535860475E+01  4.8000000000E+00  0.0000000000E+00  9.0000000000E+00
 3 2 15 0 1002 1001  3.8212728778E+01  1.3651339908E+01  2.0812307336E+01  4.5606730409E+01  5.0000000000E-01  0.0000000000E+00  9.0000000000E+00
 -4 2 15 0 1003 1002 -3.8124874663E+01  4.4679445914E+01  2.3358331143E+00  5.8800213193E+01  1.5000000000E+00  0.0000000000E+00  9.0000000000E+00
 -15 2 13 0 0 0  1.6422339239E+01 -1.8698821806E+01 -6.7280074431E-01  2.4958957367E+01  1.7770000000E+00  5.5259837832E-02  9.0000000000E+00
 16 1 14 0 0 0 -2.1274308744E+01  3.3846309852E+01 -8.9697731133E+01  9.8203115397E+01  0.0000000000E+00  0.0000000000E+00  9.0000000000E+00
 5 2 12 0 1004 1003 -7.4797531739E+00  3.8405518272E+00  1.7955321932E+01  2.0399267918E+01  4.8000000000E+00  0.0000000000E+00  9.0000000000E+00
 21 2 12 0 1005 1004 -1.3858411846E-01 -1.5989463326E+00  9.9786884533E-01  1.8898616788E+00 -2.1073424255E-08  0.0000000000E+00  9.0000000000E+00
 21 2 12 0 1006 1005 -1.9944136831E+01 -1.7783318430E+01  2.5085153226E+01  3.6650783357E+01 -4.7683715820E-07  0.0000000000E+00  9.0000000000E+00
 21 2 16 0 1007 1006 -3.2851419085E+00 -1.5589420290E+01  8.6215931247E+00  1.8115022781E+01  2.3841857910E-07  0.0000000000E+00  9.0000000000E+00
 21 2 16 0 1008 1007 -1.3885172732E+00 -1.5314256294E+00  7.3657789704E-01  2.1944912109E+00  2.9802322388E-08  0.0000000000E+00  9.0000000000E+00
 21 2 16 0 1009 1008  2.1472019432E+01 -2.4577838422E+01  6.1817141756E+00  3.3216431930E+01 -4.7683715820E-07  0.0000000000E+00  9.0000000000E+00
 -5 2 16 0 0 1009  1.5528229263E+01 -1.6237876591E+01  6.6834423960E+00  2.3927033718E+01  4.8000000000E+00  0.0000000000E+00  9.0000000000E+00
 -4 2 18 0 0 1010 -3.3504188054E+01  3.9269244620E+01  2.0546711072E+00  5.1682452182E+01  1.5000000000E+00  0.0000000000E+00  9.0000000000E+00
 21 2 17 0 1010 1011  1.2024722506E+00  5.6658337912E-01  8.4015522693E-01  1.5725193303E+00 -2.1073424255E-08  0.0000000000E+00  9.0000000000E+00
 21 2 17 0 1011 1012  5.2481131524E+00 -1.1125996445E+00  1.9334409273E+00  5.7025225514E+00  0.0000000000E+00  0.0000000000E+00  9.0000000000E+00
 21 2 17 0 1012 1013  2.0336392157E+00 -3.2937722180E-01 -5.8890159732E-01  2.1426579067E+00  5.1619136559E-08  0.0000000000E+00  9.0000000000E+00
 21 2 17 0 1013 1014  5.3170400443E+00  1.8894225506E+00 -1.7449350760E+00  5.9064059145E+00  0.0000000000E+00  0.0000000000E+00  9.0000000000E+00
 21 2 17 0 1014 1015  2.0978411500E+00 -3.2033237486E-01  3.8982824711E-01  2.1576645669E+00 -2.9802322388E-08  0.0000000000E+00  9.0000000000E+00
 21 2 17 0 1015 1016  1.8854055104E+00  1.8187008107E+00  2.6526423818E+00  3.7281279730E+00 -5.9604644775E-08  0.0000000000E+00  9.0000000000E+00
 2 2 17 0 1016 0  1.7415193010E+00  1.5735312279E+00  5.7975984574E+00  6.2633807064E+00  3.3000000000E-01  0.0000000000E+00  9.0000000000E+00
 3 2 17 0 1017 0  5.6520846626E+00  1.0064482708E+01  3.7061326742E+00  1.2133643006E+01  5.0000000000E-01  0.0000000000E+00  9.0000000000E+00
 21 2 17 0 1018 1017  3.8686968015E+00  4.0361751419E+00  3.6084489166E+00  6.6542038068E+00  8.4293697022E-08  0.0000000000E+00  9.0000000000E+00
 -2 2 17 0 0 1018  4.5452300801E+00  8.7495462549E-01  4.4990591854E+00  6.4633656582E+00  3.3000000000E-01  0.0000000000E+00  9.0000000000E+00
 -16 1 19 0 0 0  5.5175251184E+00 -7.2354940548E+00  1.0792920564E-01  9.0998410075E+00 -1.6858739404E-07  0.0000000000E+00  9.0000000000E+00
 213 2 19 0 0 0  1.0904814121E+01 -1.1463327752E+01 -7.8072994995E-01  1.5859116360E+01  7.6103765781E-01  0.0000000000E+00  9.0000000000E+00
 211 1 40 0 0 0  5.7229236346E+00 -5.9851709892E+00 -7.6286239354E-01  8.3171849513E+00  1.3957000000E-01  0.0000000000E+00  9.0000000000E+00
 111 2 40 0 0 0  5.1818904859E+00 -5.4781567624E+00 -1.7867556411E-02  7.5419314086E+00  1.3498000000E-01  2.3892724560E-06  9.0000000000E+00
 22 1 42 0 0 0  3.4133330999E+00 -3.6930946559E+00 -3.7744767058E-02  5.0290372494E+00 -5.9604644775E-08  0.0000000000E+00  9.0000000000E+00
 22 1 42 0 0 0  1.7685573860E+00 -1.7850621065E+00  1.9877210647E-02  2.5128941591E+00  5.9604644775E-08  0.0000000000E+00  9.0000000000E+00
 92 2 21 27 0 0  4.7641153904E+00 -7.3478273868E+01  6.6261671597E+01  1.3639289259E+02  9.3758511618E+01  0.0000000000E+00  9.0000000000E+00
 -20513 2 45 0 0 0 -5.3163314448E+00  2.2500615039E+00  1.3705395527E+01  1.5948866144E+01  5.7621443841E+00  0.0000000000E+00  9.0000000000E+00
 -213 2 45 0 0 0 -1.7743307470E+00 -1.9995871008E-01  3.2289355744E+00  3.7500047840E+00  6.6953554857E-01  0.0000000000E+00  9.0000000000E+00
 113 2 45 0 0 0 -6.5881034514E-01  6.0716622823E-01  1.0064007822E+00  1.4090991254E+00  4.1235410897E-01  0.0000000000E+00  9.0000000000E+00
 213 2 45 0 0 0 -1.9832544921E+00 -1.2492021152E+00  2.8695259193E+00  3.7818357443E+00  7.5782470929E-01  0.0000000000E+00  9.0000000000E+00
 -213 2 45 0 0 0 -1.0020434208E+00 -1.2566797770E+00  1.8841781057E+00  2.6467421090E+00  9.3369244347E-01  0.0000000000E+00  9.0000000000E+00
 10213 2 45 0 0 0 -1.2125460005E+01 -1.2055033660E+01  1.5896272846E+01  2.3376150575E+01  1.1841910595E+00  0.0000000000E+00  9.0000000000E+00
 2112 1 45 0 0 0 -3.8441519663E-01 -2.5418427977E+00  1.2964844843E+00  3.0285976383E+00  9.3957000000E-01  0.0000000000E+00  9.0000000000E+00
 -2112 1 45 0 0 0 -2.2183769212E+00 -3.6826832578E+00  3.0575877432E+00  5.3586366488E+00  9.3957000000E-01  0.0000000000E+00  9.0000000000E+00
 -20213 2 45 0 0 0 -2.7367318986E+00 -2.9100103077E+00  3.4504541947E+00  5.4485512486E+00  1.3502648198E+00  0.0000000000E+00  9.0000000000E+00
 223 2 45 0 0 0 -7.6269273666E-01 -2.1481773390E+00  2.0398579081E+00  3.1531705889E+00  7.6491724188E-01  0.0000000000E+00  9.0000000000E+00
 111 2 45 0 0 0 -1.2500997289E+00 -3.1344118438E+00  1.3780290378E+00  3.6475293787E+00  1.3498000000E-01  1.9393836689E-05  9.0000000000E+00
 2212 1 45 0 0 0  1.8810675368E-01 -1.1442849915E+00  6.6023102642E-01  1.6312657336E+00  9.3827000000E-01  0.0000000000E+00  9.0000000000E+00
 -2112 1 45 0 0 0 -6.5398656557E-01 -3.5712799916E+00  1.7135040897E+00  4.1231816910E+00  9.3957000000E-01  0.0000000000E+00  9.0000000000E+00
 223 2 45 0 0 0 -4.7277945614E-01 -2.1904862061E+00  9.9035758984E-01  2.5713986394E+00  7.8072567116E-01  0.0000000000E+00  9.0000000000E+00
 223 2 45 0 0 0  1.4428681082E+00 -2.4350596239E+00  5.9857531214E-01  2.9970367411E+00  7.8265769903E-01  0.0000000000E+00  9.0000000000E+00
 2112 1 45 0 0 0  6.6876112198E+00 -7.6958751407E+00  2.2906445680E+00  1.0491924625E+01  9.3957000000E-01  0.0000000000E+00  9.0000000000E+00
 -2212 1 45 0 0 0  1.8708117831E+00 -1.3430769457E+00  3.7654050661E-01  2.5151393114E+00  9.3827000000E-01  0.0000000000E+00  9.0000000000E+00
 10213 2 45 0 0 0  7.5659295365E+00 -8.8705655143E+00  2.3675548782E+00  1.1942344708E+01  1.0411814134E+00  0.0000000000E+00  9.0000000000E+00
 511 2 45 0 0 0  1.8348100947E+01 -1.9906873379E+01  7.4511415031E+00  2.8571417158E+01  5.2792000000E+00  7.9927347224E-02  9.0000000000E+00
 92 2 28 35 0 0 -1.3978157429E+01  4.3355173347E+01  1.1334499674E+01  7.9155731131E+01  6.3734597723E+01  0.0000000000E+00  9.0000000000E+00
 -10413 2 65 0 0 0 -6.4162414319E+00  6.9209886704E+00  3.7973484098E-01  9.7520620329E+00  2.4269892988E+00  0.0000000000E+00  9.0000000000E+00
 10213 2 65 0 0 0 -1.8444464807E+01  2.2011178763E+01  1.3375754297E+00  2.8775594257E+01  1.2471745027E+00  0.0000000000E+00  9.0000000000E+00
 -213 2 65 0 0 0 -7.4644802048E+00  9.3283850422E+00  5.8225180527E-01  1.1998258688E+01  9.3912840564E-01  0.0000000000E+00  9.0000000000E+00
 10113 2 65 0 0 0 -9.2095171151E-02  1.2228221846E+00  5.2113648345E-01  1.8112525658E+00  1.2268973090E+00  0.0000000000E+00  9.0000000000E+00
 -313 2 65 0 0 0  7.0979940978E-01 -2.0547214927E-01 -2.1029814465E-01  1.2100257458E+00  9.3482778609E-01  0.0000000000E+00  9.0000000000E+00
 311 2 65 0 0 0  1.6524331954E+00 -2.2641660150E-01  8.4119869530E-01  1.9331556111E+00  4.9767000000E-01  0.0000000000E+00  9.0000000000E+00
 211 1 65 0 0 0  2.0522063587E+00  5.0834995700E-01 -6.2534491117E-02  2.1197549304E+00  1.3957000000E-01  0.0000000000E+00  9.0000000000E+00
 -2212 1 65 0 0 0  2.3643336632E+00 -8.0415608606E-01  5.7146985282E-01  2.7283088292E+00  9.3827000000E-01  0.0000000000E+00  9.0000000000E+00
 2112 1 65 0 0 0  1.3221275888E+00  2.0781207025E-01 -2.8471277278E-01  1.6598374515E+00  9.3957000000E-01  0.0000000000E+00  9.0000000000E+00
 211 1 65 0 0 0  1.0037767208E+00  5.2660889609E-01 -1.8719099594E-01  1.1573266127E+00  1.3957000000E-01  0.0000000000E+00  9.0000000000E+00
 -211 1 65 0 0 0  9.7098100543E-01 -2.5095900382E-01 -7.8339972152E-02  1.0155793768E+00  1.3957000000E-01  0.0000000000E+00  9.0000000000E+00
 213 2 65 0 0 0  3.2350978039E+00  1.3601149832E+00 -4.6911592087E-01  3.6542548602E+00  9.0428881865E-01  0.0000000000E+00  9.0000000000E+00
 -323 2 65 0 0 0  8.8207449530E-01 -1.2577821588E-01  4.6098272413E-01  1.3632237951E+00  9.2303763134E-01  0.0000000000E+00  9.0000000000E+00
 10323 2 65 0 0 0  1.7494663687E+00  1.1411431552E+00  1.8593814876E+00  3.0795781937E+00  1.2898302441E+00  0.0000000000E+00  9.0000000000E+00
 10113 2 65 0 0 0  2.4968275755E+00  1.7405516820E+00  6.0729606528E+00  6.8975181810E+00  1.1963435410E+00  0.0000000000E+00  9.0000000000E+00
 92 2 36 38 0 0  1.4066011544E+01  1.4975612475E+01  1.1813640776E+01  2.5251212471E+01  8.7143544290E+00  0.0000000000E+00  9.0000000000E+00
 -10323 2 81 0 0 0  4.9218877305E+00  8.3087900629E+00  3.6959598859E+00  1.0419326415E+01  1.2811215072E+00  0.0000000000E+00  9.0000000000E+00
 10111 2 81 0 0 0  2.0021062781E+00  2.9351743438E+00  1.2548119626E+00  3.8861386516E+00  9.5070635895E-01  0.0000000000E+00  9.0000000000E+00
 211 1 81 0 0 0  1.1015045070E+00  1.0701374809E+00  1.3743789276E+00  2.0656484765E+00  1.3957000000E-01  0.0000000000E+00  9.0000000000E+00
 313 2 81 0 0 0  3.3403183580E+00  1.5710520121E+00  2.8908777118E+00  4.7674985358E+00  8.6367655171E-01  0.0000000000E+00  9.0000000000E+00
 -10323 2 81 0 0 0  2.7001946706E+00  1.0904585753E+00  2.5976122883E+00  4.1126003927E+00  1.2983609768E+00  0.0000000000E+00  9.0000000000E+00
 -513 2 46 0 0 0 -4.4069086262E+00  2.1075922476E+00  1.2123200234E+01  1.4113407373E+01  5.3248000000E+00  0.0000000000E+00  9.0000000000E+00
 111 2 46 0 0 0 -9.0942281869E-01  1.4246925626E-01  1.5821952936E+00  1.8354587709E+00  1.3498000000E-01  5.3989749864E-05  9.0000000000E+00
 -211 1 47 0 0 0 -1.6804348064E-01 -1.4149905517E-01  7.3675088945E-01  7.8137203175E-01  1.3957000000E-01  0.0000000000E+00  9.0000000000E+00
 111 2 47 0 0 0 -1.6062872664E+00 -5.8459654909E-02  2.4921846849E+00  2.9686327522E+00  1.3498000000E-01  1.2202522339E-05  9.0000000000E+00
 211 1 48 0 0 0 -2.5026199375E-01  4.2753564906E-01  5.9022438141E-01  7.8311072144E-01  1.3957000000E-01  0.0000000000E+00  9.0000000000E+00
 -211 1 48 0 0 0 -4.0854835139E-01  1.7963057917E-01  4.1617640082E-01  6.2598840396E-01  1.3957000000E-01  0.0000000000E+00  9.0000000000E+00
 211 1 49 0 0 0 -9.9769526075E-01 -7.0613765954E-01  9.5664992352E-01  1.5584239117E+00  1.3957000000E-01  0.0000000000E+00  9.0000000000E+00
 111 2 49 0 0 0 -9.8555923137E-01 -5.4306445569E-01  1.9128759958E+00  2.2234118326E+00  1.3498000000E-01  2.8184595323E-05  9.0000000000E+00
 -211 1 50 0 0 0 -9.5409080432E-01 -1.1451734973E+00  1.9457797064E+00  2.4550458351E+00  1.3957000000E-01  0.0000000000E+00  9.0000000000E+00
 111 2 50 0 0 0 -4.7952616429E-02 -1.1150627965E-01 -6.1601600721E-02  1.9169627392E-01  1.3498000000E-01  1.0498428089E-05  9.0000000000E+00
 223 2 51 0 0 0 -6.8759488225E+00 -7.1075670003E+00  9.4526734791E+00  1.3702772335E+01  7.8533616045E-01  0.0000000000E+00  9.0000000000E+00
 211 1 51 0 0 0 -5.2495111824E+00 -4.9474666595E+00  6.4435993669E+00  9.6733782407E+00  1.3957000000E-01  0.0000000000E+00  9.0000000000E+00
 -213 2 54 0 0 0 -6.9537601605E-01 -1.0511980867E+00  1.3626010939E+00  1.9844977151E+00  7.0212834944E-01  0.0000000000E+00  9.0000000000E+00
 111 2 54 0 0 0 -2.0413558825E+00 -1.8588122210E+00  2.0878531008E+00  3.4640535335E+00  1.3498000000E-01  7.2378328842E-05  9.0000000000E+00
 -211 1 55 0 0 0 -2.8998440919E-02 -1.8884533125E-01  3.3192904548E-01  4.0762745840E-01  1.3957000000E-01  0.0000000000E+00  9.0000000000E+00
 211 1 55 0 0 0 -6.7348035283E-02 -7.1413343865E-01  5.9737573607E-01  9.4385373920E-01  1.3957000000E-01  0.0000000000E+00  9.0000000000E+00
 111 2 55 0 0 0 -6.6634626046E-01 -1.2451985692E+00  1.1105531265E+00  1.8016893913E+00  1.3498000000E-01  2.7510288762E-05  9.0000000000E+00
 22 1 56 0 0 0 -8.3871284070E-01 -1.9394870560E+00  8.3580613413E-01  2.2723602627E+00  2.9802322388E-08  0.0000000000E+00  9.0000000000E+00
 22 1 56 0 0 0 -4.1138688821E-01 -1.1949247878E+00  5.4222290368E-01  1.3751691160E+00  0.0000000000E+00  0.0000000000E+00  9.0000000000E+00
 211 1 59 0 0 0 -1.1119101201E-02 -8.1140357709E-02  1.0026747157E-01  1.9037001554E-01  1.3957000000E-01  0.0000000000E+00  9.0000000000E+00
 -211 1 59 0 0 0 -2.9667788003E-01 -7.9013231209E-01  4.9115328676E-01  9.8642697201E-01  1.3957000000E-01  0.0000000000E+00  9.0000000000E+00
 111 2 59 0 0 0 -1.6498247491E-01 -1.3192135363E+00  3.9893683151E-01  1.3946016518E+00  1.3498000000E-01  6.9251922332E-05  9.0000000000E+00
 -211 1 60 0 0 0  1.2405467608E-01 -5.0187462037E-01  1.9414846380E-01  5.6959732103E-01  1.3957000000E-01  0.0000000000E+00  9.0000000000E+00
 211 1 60 0 0 0  4.6787618870E-01 -7.8212841994E-01  3.5745198024E-01  9.8888052681E-01  1.3957000000E-01  0.0000000000E+00  9.0000000000E+00
 111 2 60 0 0 0  8.5093724344E-01 -1.1510565836E+00  4.6974868110E-02  1.4385588933E+00  1.3498000000E-01  5.2174446990E-05  9.0000000000E+00
 223 2 63 0 0 0  4.7370829443E+00 -5.7726347165E+00  1.4851848607E+00  7.6531017794E+00  7.7519441721E-01  0.0000000000E+00  9.0000000000E+00
 211 1 63 0 0 0  2.8288465922E+00 -3.0979307978E+00  8.8237001749E-01  4.2892429288E+00  1.3957000000E-01  0.0000000000E+00  9.0000000000E+00
 14 1 64 0 0 0  7.7601525742E+00 -6.4942327305E+00  3.2763681672E+00  1.0636240647E+01  1.1920928955E-07  0.0000000000E+00  9.0000000000E+00
 -13 1 64 0 0 0  1.6164423096E+00 -3.2418262698E+00  4.0402388578E-01  3.6464671450E+00  1.0566000000E-01  0.0000000000E+00  9.0000000000E+00
 -415 2 64 0 0 0  8.9715060637E+00 -1.0170814378E+01  3.7707494501E+00  1.4288709366E+01  2.4526063217E+00  0.0000000000E+00  9.0000000000E+00
 -413 2 66 0 0 0 -5.2837500168E+00  6.2073256314E+00  2.3693143953E-01  8.3991155631E+00  2.0100000000E+00  0.0000000000E+00  9.0000000000E+00
 111 2 66 0 0 0 -1.1324914151E+00  7.1366303896E-01  1.4280340145E-01  1.3529464698E+00  1.3498000000E-01  3.9501741296E-05  9.0000000000E+00
 223 2 67 0 0 0 -1.4363828879E+01  1.6977084930E+01  7.0891302588E-01  2.2263422077E+01  7.8511916872E-01  0.0000000000E+00  9.0000000000E+00
 211 1 67 0 0 0 -4.0806359283E+00  5.0340938330E+00  6.2866240382E-01  6.5121721799E+00  1.3957000000E-01  0.0000000000E+00  9.0000000000E+00
 -211 1 68 0 0 0 -7.0856193957E-01  1.2330860787E+00  2.3083164682E-01  1.4475235176E+00  1.3957000000E-01  0.0000000000E+00  9.0000000000E+00
 111 2 68 0 0 0 -6.7559182653E+00  8.0952989635E+00  3.5142015846E-01  1.0550735171E+01  1.3498000000E-01  4.0717487353E-07  9.0000000000E+00
 223 2 69 0 0 0  2.1741174679E-02  7.1917545206E-01 -5.8040323109E-02  1.0236713836E+00  7.2584324271E-01  0.0000000000E+00  9.0000000000E+00
 111 2 69 0 0 0 -1.1383634583E-01  5.0364673258E-01  5.7917680655E-01  7.8758118218E-01  1.3498000000E-01  3.1048344938E-05  9.0000000000E+00
 -311 2 70 0 0 0  7.2053987783E-01  7.4701698371E-02 -1.8230302744E-01  8.9759004116E-01  4.9767000000E-01  0.0000000000E+00  9.0000000000E+00
 111 2 70 0 0 0 -1.0740468052E-02 -2.8017384764E-01 -2.7995117212E-02  3.1243570466E-01  1.3498000000E-01  1.6098363516E-05  9.0000000000E+00
 310 2 71 0 0 0  1.6524331954E+00 -2.2641660150E-01  8.4119869530E-01  1.9331556111E+00  4.9767000000E-01  2.2118920297E+01  9.0000000000E+00
 211 1 77 0 0 0  1.8506564352E+00  1.1870265849E+00 -4.6947913353E-01  2.2525212088E+00  1.3957000000E-01  0.0000000000E+00  9.0000000000E+00
 111 2 77 0 0 0  1.3844413687E+00  1.7308839827E-01  3.6321265734E-04  1.4017336514E+00  1.3498000000E-01  1.7553779014E-05  9.0000000000E+00
 -311 2 78 0 0 0  8.2122949036E-01  3.0408288547E-02  5.7236522196E-01  1.1183111893E+00  4.9767000000E-01  0.0000000000E+00  9.0000000000E+00
 -211 1 78 0 0 0  6.0845004935E-02 -1.5618650443E-01 -1.1138249783E-01  2.4491260587E-01  1.3957000000E-01  0.0000000000E+00  9.0000000000E+00
 323 2 79 0 0 0  1.7355032250E+00  8.8349798521E-01  1.5000720353E+00  2.6170861549E+00  8.9798869560E-01  0.0000000000E+00  9.0000000000E+00
 111 2 79 0 0 0  1.3963143752E-02  2.5764516999E-01  3.5930945224E-01  4.6249203871E-01  1.3498000000E-01  3.4178799591E-06  9.0000000000E+00
 223 2 80 0 0 0  1.2577299587E+00  8.8689762623E-01  3.6961033552E+00  4.0811804235E+00  7.9144272606E-01  0.0000000000E+00  9.0000000000E+00
 111 2 80 0 0 0  1.2390976168E+00  8.5365405579E-01  2.3768572975E+00  2.8163377575E+00  1.3498000000E-01  2.2835185953E-05  9.0000000000E+00
 -323 2 82 0 0 0  3.4993057926E+00  6.2722450541E+00  3.0220773690E+00  7.8418097436E+00  8.8024393266E-01  0.0000000000E+00  9.0000000000E+00
 111 2 82 0 0 0  1.4225819379E+00  2.0365450088E+00  6.7388251689E-01  2.5775166711E+00  1.3498000000E-01  2.3873067337E-05  9.0000000000E+00
 221 2 83 0 0 0  6.3054563519E-01  1.0287242127E+00  4.8490256955E-01  1.4109193132E+00  5.4745000000E-01  0.0000000000E+00  9.0000000000E+00
 111 2 83 0 0 0  1.3715606429E+00  1.9064501311E+00  7.6990939306E-01  2.4752193385E+00  1.3498000000E-01  1.4977874401E-05  9.0000000000E+00
 321 1 85 0 0 0  3.1035510134E+00  1.3903602987E+00  2.4634458793E+00  4.2281600269E+00  4.9360000000E-01  0.0000000000E+00  9.0000000000E+00
 -211 1 85 0 0 0  2.3676734467E-01  1.8069171335E-01  4.2743183251E-01  5.3933850884E-01  1.3957000000E-01  0.0000000000E+00  9.0000000000E+00
 -311 2 86 0 0 0  1.2283370911E+00  3.4881214579E-01  9.3752941264E-01  1.6604573921E+00  4.9767000000E-01  0.0000000000E+00  9.0000000000E+00
 -213 2 86 0 0 0  1.4718575795E+00  7.4164642955E-01  1.6600828757E+00  2.4521430006E+00  7.3534072419E-01  0.0000000000E+00  9.0000000000E+00
 -511 2 87 0 0 0 -4.4075765255E+00  2.1078532972E+00  1.2132266880E+01  1.4104312412E+01  5.2792000000E+00  1.5216943515E+00  9.0000000000E+00
 22 1 87 0 0 0  6.6789931205E-04 -2.6104953821E-04 -9.0666458339E-03  9.0949603094E-03  7.3627514303E-10  0.0000000000E+00  9.0000000000E+00
 22 1 88 0 0 0 -5.5501270333E-01  1.1598281935E-01  1.0861278777E+00  1.2252203402E+00  2.5809568280E-08  0.0000000000E+00  9.0000000000E+00
 22 1 88 0 0 0 -3.5441011537E-01  2.6486436910E-02  4.9606741592E-01  6.1023843074E-01  1.0536712128E-08  0.0000000000E+00  9.0000000000E+00
 22 1 90 0 0 0 -8.3180447323E-01 -7.9697661154E-02  1.3775325676E+00  1.6111630500E+00 -2.9802322388E-08  0.0000000000E+00  9.0000000000E+00
 22 1 90 0 0 0 -7.7448279317E-01  2.1238006245E-02  1.1146521173E+00  1.3574697022E+00 -2.9802322388E-08  0.0000000000E+00  9.0000000000E+00
 22 1 94 0 0 0 -5.1832416175E-01 -3.4769682537E-01  9.7833859372E-01  1.1604737925E+00  1.4901161194E-08  0.0000000000E+00  9.0000000000E+00
 22 1 94 0 0 0 -4.6723506963E-01 -1.9536763032E-01  9.3453740204E-01  1.0629380401E+00  2.5809568280E-08  0.0000000000E+00  9.0000000000E+00
 22 1 96 0 0 0  3.7049455938E-04 -1.1975285167E-01 -9.4561513220E-03  1.2012619010E-01  1.8626451492E-09  0.0000000000E+00  9.0000000000E+00
 22 1 96 0 0 0 -4.8323110988E-02  8.2465720182E-03 -5.2145449399E-02  7.1570083825E-02  1.3170890160E-09  0.0000000000E+00  9.0000000000E+00
 211 1 97 0 0 0 -2.6807646672E+00 -2.8178312336E+00  3.3227953266E+00  5.1173353055E+00  1.3957000000E-01  0.0000000000E+00  9.0000000000E+00
 -211 1 97 0 0 0 -2.1229287264E+00 -2.1999840983E+00  2.9544169086E+00  4.2538001204E+00  1.3957000000E-01  0.0000000000E+00  9.0000000000E+00
 111 2 97 0 0 0 -2.0722554289E+00 -2.0897516685E+00  3.1754612439E+00  4.3316369089E+00  1.3498000000E-01  5.7637629373E-05  9.0000000000E+00
 -211 1 99 0 0 0 -2.4561852487E-01 -8.4931794156E-01  1.0719514483E+00  1.3965060394E+00  1.3957000000E-01  0.0000000000E+00  9.0000000000E+00
 111 2 99 0 0 0 -4.4975749118E-01 -2.0188014518E-01  2.9064964559E-01  5.8799167577E-01  1.3498000000E-01  3.5597917343E-06  9.0000000000E+00
 22 1 100 0 0 0 -6.6992881596E-01 -5.6045472753E-01  5.9700290436E-01  1.0579823193E+00  0.0000000000E+00  0.0000000000E+00  9.0000000000E+00
 22 1 100 0 0 0 -1.3714270666E+00 -1.2983574935E+00  1.4908501965E+00  2.4060712142E+00  5.9604644775E-08  0.0000000000E+00  9.0000000000E+00
 22 1 103 0 0 0 -4.1473314438E-01 -8.6204112931E-01  6.8880327204E-01  1.1787995747E+00 -2.1073424255E-08  0.0000000000E+00  9.0000000000E+00
 22 1 103 0 0 0 -2.5161311608E-01 -3.8315743985E-01  4.2174985448E-01  6.2288981662E-01  1.2904784140E-08  0.0000000000E+00  9.0000000000E+00
 22 1 108 0 0 0 -5.5050192942E-02 -1.7931262044E-01  2.3421116972E-02  1.8902933188E-01  0.0000000000E+00  0.0000000000E+00  9.0000000000E+00
 11 1 108 0 0 0 -9.7345459723E-02 -8.8574070109E-01  2.8737134222E-01  9.3626666956E-01  5.1000000042E-04  0.0000000000E+00  9.0000000000E+00
 -11 1 108 0 0 0 -1.2586822243E-02 -2.5416021474E-01  8.8144372317E-02  2.6930565037E-01  5.1000000000E-04  0.0000000000E+00  9.0000000000E+00
 22 1 111 0 0 0  3.8342547895E-01 -6.2514548395E-01  6.0130186873E-04  7.3336371302E-01  1.0536712128E-08  0.0000000000E+00  9.0000000000E+00
 22 1 111 0 0 0  4.6751176449E-01 -5.2591109961E-01  4.6373566241E-02  7.0519518027E-01 -7.4505805969E-09  0.0000000000E+00  9.0000000000E+00
 211 1 112 0 0 0  1.8767051124E+00 -2.7652999951E+00  6.9742454758E-01  3.4168387328E+00  1.3957000000E-01  0.0000000000E+00  9.0000000000E+00
 -211 1 112 0 0 0  9.8616836456E-01 -1.0286656031E+00  2.1206258433E-01  1.4474568356E+00  1.3957000000E-01  0.0000000000E+00  9.0000000000E+00
 111 2 112 0 0 0  1.8742094674E+00 -1.9786691183E+00  5.7569772877E-01  2.7888062110E+00  1.3498000000E-01  1.8576960547E-05  9.0000000000E+00
 -423 2 116 0 0 0  6.7761552385E+00 -7.9144553564E+00  3.0074520253E+00  1.1028440324E+01  2.0067000000E+00  0.0000000000E+00  9.0000000000E+00
 -211 1 116 0 0 0  8.3356448772E-01 -1.0273638710E+00  3.2187901766E-01  1.3687191697E+00  1.3957000000E-01  0.0000000000E+00  9.0000000000E+00
 111 2 116 0 0 0  1.3617863375E+00 -1.2289951508E+00  4.4141840711E-01  1.8915498725E+00  1.3498000000E-01  6.8236127686E-06  9.0000000000E+00
 -421 2 117 0 0 0 -4.8184302637E+00  5.7117920011E+00  2.1740476437E-01  7.7048986464E+00  1.8645000000E+00  8.0874803729E-02  9.0000000000E+00
 -211 1 117 0 0 0 -4.6531975318E-01  4.9553363038E-01  1.9526675158E-02  6.9421691673E-01  1.3957000000E-01  0.0000000000E+00  9.0000000000E+00
 22 1 118 0 0 0 -1.1100719522E+00  6.7750251566E-01  1.5223158948E-01  1.3093677309E+00  3.6500241500E-08  0.0000000000E+00  9.0000000000E+00
 22 1 118 0 0 0 -2.2419462856E-02  3.6160523305E-02 -9.4281880329E-03  4.3578738968E-02  1.5444237694E-09  0.0000000000E+00  9.0000000000E+00
 -211 1 119 0 0 0 -7.4129543334E+00  8.7318440342E+00  4.9026551764E-01  1.1465462583E+01  1.3957000000E-01  0.0000000000E+00  9.0000000000E+00
 211 1 119 0 0 0 -6.2229443226E+00  7.4770567958E+00  1.9317514868E-01  9.7307867509E+00  1.3957000000E-01  0.0000000000E+00  9.0000000000E+00
 111 2 119 0 0 0 -7.2793022287E-01  7.6818410005E-01  2.5472359558E-02  1.0671727425E+00  1.3498000000E-01  4.1130574636E-05  9.0000000000E+00
 22 1 122 0 0 0 -2.2711633718E+00  2.6295400670E+00  1.3945013747E-01  3.4773711861E+00 -5.9604644775E-08  0.0000000000E+00  9.0000000000E+00
 22 1 122 0 0 0 -4.4847548934E+00  5.4657588965E+00  2.1197002099E-01  7.0733639846E+00 -1.1920928955E-07  0.0000000000E+00  9.0000000000E+00
 211 1 123 0 0 0 -2.1032531402E-01  2.1070491802E-01 -1.0906260687E-01  3.4642132918E-01  1.3957000000E-01  0.0000000000E+00  9.0000000000E+00
 -211 1 123 0 0 0  5.1438700704E-02  1.3810400440E-01 -8.8948725643E-02  2.2160847604E-01  1.3957000000E-01  0.0000000000E+00  9.0000000000E+00
 111 2 123 0 0 0  1.8062778799E-01  3.7036652964E-01  1.3997100941E-01  4.5564157838E-01  1.3498000000E-01  1.8248720137E-05  9.0000000000E+00
 22 1 124 0 0 0 -7.6072072762E-02  1.1829992753E-01  2.0890258727E-01  2.5183749537E-01 -5.2683560639E-09  0.0000000000E+00  9.0000000000E+00
 22 1 124 0 0 0 -3.7764273069E-02  3.8534680505E-01  3.7027421928E-01  5.3574368680E-01 -1.0536712128E-08  0.0000000000E+00  9.0000000000E+00
 130 1 125 0 0 0  7.2053987783E-01  7.4701698371E-02 -1.8230302744E-01  8.9759004116E-01  4.9767000000E-01  0.0000000000E+00  9.0000000000E+00
 22 1 126 0 0 0  1.2504667184E-02 -7.6993068958E-02 -6.8671627487E-02  1.0392349008E-01  3.2261960349E-09  0.0000000000E+00  9.0000000000E+00
 22 1 126 0 0 0 -2.3245135236E-02 -2.0318077868E-01  4.0676510276E-02  2.0851221457E-01  4.5625301875E-09  0.0000000000E+00  9.0000000000E+00
 211 1 127 0 0 0  5.8190312188E-01 -2.3031762376E-01  1.7537510663E-01  6.6475082850E-01  1.3957000000E-01  0.0000000000E+00  9.0000000000E+00
 -211 1 127 0 0 0  1.0705300736E+00  3.9010222547E-03  6.6582358868E-01  1.2684047826E+00  1.3957000000E-01  0.0000000000E+00  9.0000000000E+00
 22 1 129 0 0 0  5.9352760363E-01  1.2017706546E-01 -4.8755771494E-02  6.0753161941E-01 -1.0536712128E-08  0.0000000000E+00  9.0000000000E+00
 22 1 129 0 0 0  7.9091376510E-01  5.2911332816E-02  4.9118984152E-02  7.9420203196E-01  1.0536712128E-08  0.0000000000E+00  9.0000000000E+00
 130 1 130 0 0 0  8.2122949036E-01  3.0408288547E-02  5.7236522196E-01  1.1183111893E+00  4.9767000000E-01  0.0000000000E+00  9.0000000000E+00
 311 2 132 0 0 0  9.1133219136E-01  6.4740862368E-01  1.1543084291E+00  1.6821913290E+00  4.9767000000E-01  0.0000000000E+00  9.0000000000E+00
 211 1 132 0 0 0  8.2417103361E-01  2.3608936154E-01  3.4576360629E-01  9.3489482596E-01  1.3957000000E-01  0.0000000000E+00  9.0000000000E+00
 22 1 133 0 0 0  1.7157111997E-02  1.2445149932E-01  6.9610875623E-02  1.4362526303E-01  0.0000000000E+00  0.0000000000E+00  9.0000000000E+00
 22 1 133 0 0 0 -3.1939682451E-03  1.3319367067E-01  2.8969857662E-01  3.1886677568E-01 -3.7252902985E-09  0.0000000000E+00  9.0000000000E+00
 211 1 134 0 0 0  2.7624794876E-01  2.3790505973E-01  4.4346330215E-01  5.9080557876E-01  1.3957000000E-01  0.0000000000E+00  9.0000000000E+00
 -211 1 134 0 0 0  8.4442568558E-01  3.9972976581E-01  2.2762695681E+00  2.4644921497E+00  1.3957000000E-01  0.0000000000E+00  9.0000000000E+00
 111 2 134 0 0 0  1.3705632436E-01  2.4926280069E-01  9.7637048492E-01  1.0258826951E+00  1.3498000000E-01  2.7028026151E-05  9.0000000000E+00
 22 1 135 0 0 0  1.1604021223E+00  7.9086217927E-01  2.2166918056E+00  2.6240652875E+00  4.2146848511E-08  0.0000000000E+00  9.0000000000E+00
 -11 1 135 0 0 0  4.7952445072E-02  4.5841283158E-02  1.3014331938E-01  1.4607670557E-01  5.1000000000E-04  0.0000000000E+00  9.0000000000E+00
 11 1 135 0 0 0  3.0743049477E-02  1.6950593363E-02  3.0022172560E-02  4.6195764435E-02  5.1000000000E-04  0.0000000000E+00  9.0000000000E+00
 -311 2 136 0 0 0  2.9238442106E+00  5.5437980106E+00  2.4874141884E+00  6.7614692282E+00  4.9767000000E-01  0.0000000000E+00  9.0000000000E+00
 -211 1 136 0 0 0  5.7546158198E-01  7.2844704349E-01  5.3466318058E-01  1.0803405153E+00  1.3957000000E-01  0.0000000000E+00  9.0000000000E+00
 22 1 137 0 0 0  1.9214147626E-01  3.6063825637E-01  1.2077470560E-01  4.2610424589E-01  1.0536712128E-08  0.0000000000E+00  9.0000000000E+00
 22 1 137 0 0 0  1.2304404617E+00  1.6759067524E+00  5.5310781130E-01  2.1514124252E+00  5.1619136559E-08  0.0000000000E+00  9.0000000000E+00
 22 1 138 0 0 0  1.3194098392E-01  2.9921331984E-01 -1.1077177120E-01  3.4526427458E-01  9.1250603750E-09  0.0000000000E+00  9.0000000000E+00
 22 1 138 0 0 0  4.9860465127E-01  7.2951089282E-01  5.9567434075E-01  1.0656550386E+00  2.1073424255E-08  0.0000000000E+00  9.0000000000E+00
 22 1 139 0 0 0  5.0381256021E-01  6.0302855705E-01  2.2710285036E-01  8.1795246872E-01 -1.4901161194E-08  0.0000000000E+00  9.0000000000E+00
 22 1 139 0 0 0  8.6774808269E-01  1.3034215741E+00  5.4280654270E-01  1.6572668698E+00 -2.1073424255E-08  0.0000000000E+00  9.0000000000E+00
 310 2 142 0 0 0  1.2283370911E+00  3.4881214579E-01  9.3752941264E-01  1.6604573921E+00  4.9767000000E-01  2.7084307761E+00  9.0000000000E+00
 -211 1 143 0 0 0  1.1237649676E+00  6.2300969198E-01  1.5984119297E+00  2.0555751655E+00  1.3957000000E-01  0.0000000000E+00  9.0000000000E+00
 111 2 143 0 0 0  3.4809261184E-01  1.1863673757E-01  6.1670945941E-02  3.9656783517E-01  1.3498000000E-01  3.8404535176E-06  9.0000000000E+00
 -413 2 144 0 0 0 -3.9242565119E+00  2.2484652941E+00  7.4658373882E+00  8.9573552602E+00  2.0100000000E+00  0.0000000000E+00  9.0000000000E+00
 433 2 144 0 0 0 -4.8332001357E-01 -1.4061199694E-01  4.6664294913E+00  5.1469571522E+00  2.1124000000E+00  0.0000000000E+00  9.0000000000E+00
 22 1 156 0 0 0 -1.3208673726E+00 -1.2567461252E+00  1.9088910571E+00  2.6396906082E+00 -7.3000483000E-08  0.0000000000E+00  9.0000000000E+00
 22 1 156 0 0 0 -7.5138805634E-01 -8.3300554330E-01  1.2665701868E+00  1.6919463007E+00 -3.6500241500E-08  0.0000000000E+00  9.0000000000E+00
 22 1 158 0 0 0 -1.8739555447E-01 -8.2138671081E-02  4.5787179004E-02  2.0966716692E-01 -4.5625301875E-09  0.0000000000E+00  9.0000000000E+00
 22 1 158 0 0 0 -2.6236193670E-01 -1.1974147410E-01  2.4486246658E-01  3.7832450884E-01 -7.4505805969E-09  0.0000000000E+00  9.0000000000E+00
 22 1 170 0 0 0  2.3974751689E-01 -2.1192708317E-01  1.0154735609E-01  3.3571390493E-01 -8.3300023433E-09  0.0000000000E+00  9.0000000000E+00
 22 1 170 0 0 0  1.6344619506E+00 -1.7667420351E+00  4.7415037267E-01  2.4530923061E+00 -5.9604644775E-08  0.0000000000E+00  9.0000000000E+00
 -421 2 171 0 0 0  6.3976808078E+00 -7.5112541758E+00  2.8506843143E+00  1.0438008446E+01  1.8645000000E+00  5.8080157726E-02  9.0000000000E+00
 111 2 171 0 0 0  3.7847443069E-01 -4.0320118057E-01  1.5676771105E-01  5.9043187781E-01  1.3498000000E-01  4.3345538033E-05  9.0000000000E+00
 22 1 173 0 0 0  9.3184933982E-02 -4.5926816365E-02  3.7917887714E-02  1.1059145804E-01  3.4846899908E-09  0.0000000000E+00  9.0000000000E+00
 22 1 173 0 0 0  1.2686014035E+00 -1.1830683345E+00  4.0350051940E-01  1.7809584145E+00 -2.9802322388E-08  0.0000000000E+00  9.0000000000E+00
 313 2 174 0 0 0 -1.1692679444E+00  1.9130490081E+00  1.5275429437E-01  2.4105462116E+00  8.7204078489E-01  0.0000000000E+00  9.0000000000E+00
 -211 1 174 0 0 0 -2.3159496099E+00  2.2768181803E+00 -1.5504035289E-01  3.2543879482E+00  1.3957000000E-01  0.0000000000E+00  9.0000000000E+00
 211 1 174 0 0 0 -1.3332127094E+00  1.5219248127E+00  2.1969082290E-01  2.0399644866E+00  1.3957000000E-01  0.0000000000E+00  9.0000000000E+00
 22 1 180 0 0 0 -3.9436253598E-01  4.0686283379E-01 -5.3414762650E-02  5.6913294771E-01 -1.0536712128E-08  0.0000000000E+00  9.0000000000E+00
 22 1 180 0 0 0 -3.3356768688E-01  3.6132126626E-01  7.8887122208E-02  4.9803979483E-01  7.4505805969E-09  0.0000000000E+00  9.0000000000E+00
 22 1 185 0 0 0  4.0438384687E-02  1.5698775384E-01 -4.7200551555E-03  1.6218106157E-01  1.8626451492E-09  0.0000000000E+00  9.0000000000E+00
 22 1 185 0 0 0  1.4018940331E-01  2.1337877581E-01  1.4469106456E-01  2.9346051681E-01  0.0000000000E+00  0.0000000000E+00  9.0000000000E+00
 130 1 196 0 0 0  9.1133219136E-01  6.4740862368E-01  1.1543084291E+00  1.6821913290E+00  4.9767000000E-01  0.0000000000E+00  9.0000000000E+00
 22 1 202 0 0 0 -1.8820034336E-02  8.5365292559E-02  2.3276498201E-01  2.4863821853E-01 -2.6341780319E-09  0.0000000000E+00  9.0000000000E+00
 22 1 202 0 0 0  1.5587635870E-01  1.6389750813E-01  7.4360550291E-01  7.7724447656E-01  0.0000000000E+00  0.0000000000E+00  9.0000000000E+00
 310 2 206 0 0 0  2.9238442106E+00  5.5437980106E+00  2.4874141884E+00  6.7614692282E+00  4.9767000000E-01  1.1045880836E+01  9.0000000000E+00
 211 1 214 0 0 0  8.8658456694E-01  4.1335375721E-01  5.9937740169E-01  1.1556931156E+00  1.3957000000E-01  0.0000000000E+00  9.0000000000E+00
 -211 1 214 0 0 0  3.4175252418E-01 -6.4541611418E-02  3.3815201095E-01  5.0476427646E-01  1.3957000000E-01  0.0000000000E+00  9.0000000000E+00
 22 1 216 0 0 0  2.8907202637E-01  1.4570304000E-01  6.9723663696E-02  3.3113955000E-01  3.7252902985E-09  0.0000000000E+00  9.0000000000E+00
 22 1 216 0 0 0  5.9020585474E-02 -2.7066302437E-02 -8.0527177547E-03  6.5428285172E-02  9.3132257462E-10  0.0000000000E+00  9.0000000000E+00
 -411 2 217 0 0 0 -3.7261091524E+00  2.1288594542E+00  7.0904480935E+00  8.4961561101E+00  1.8693000000E+00  4.7492271011E-01  9.0000000000E+00
 111 2 217 0 0 0 -1.9814735954E-01  1.1960583990E-01  3.7538929473E-01  4.6119915007E-01  1.3498000000E-01  3.2187488879E-05  9.0000000000E+00
 431 2 218 0 0 0 -3.9804862739E-01 -2.3145733794E-01  4.1570559494E+00  4.6225665626E+00  1.9685000000E+00  6.6071040190E-02  9.0000000000E+00
 22 1 218 0 0 0 -8.5271386177E-02  9.0845341004E-02  5.0937354189E-01  5.2439058959E-01  0.0000000000E+00  0.0000000000E+00  9.0000000000E+00
 323 2 225 0 0 0  3.5710311683E+00 -3.7806860330E+00  8.4218294852E-01  5.3428495307E+00  8.8933599031E-01  0.0000000000E+00  9.0000000000E+00
 -211 1 225 0 0 0  2.8266496395E+00 -3.7305681428E+00  2.0085013658E+00  5.0951589155E+00  1.3957000000E-01  0.0000000000E+00  9.0000000000E+00
 22 1 226 0 0 0  5.6191316407E-02 -1.4722190880E-01  4.8014540402E-02  1.6473357448E-01 -4.1650011716E-09  0.0000000000E+00  9.0000000000E+00
 22 1 226 0 0 0  3.2228311429E-01 -2.5597927177E-01  1.0875317065E-01  4.2569830333E-01 -9.1250603750E-09  0.0000000000E+00  9.0000000000E+00
 321 1 229 0 0 0 -9.4662330276E-01  1.5995768030E+00  3.5279386847E-01  1.9552099886E+00  4.9360000000E-01  0.0000000000E+00  9.0000000000E+00
 -211 1 229 0 0 0 -2.2264464164E-01  3.1347220513E-01 -2.0003957410E-01  4.5533622297E-01  1.3957000000E-01  0.0000000000E+00  9.0000000000E+00
 -211 1 239 0 0 0  1.6960993986E+00  2.9969873060E+00  1.1747079251E+00  3.6411680237E+00  1.3957000000E-01  0.0000000000E+00  9.0000000000E+00
 211 1 239 0 0 0  1.2277448120E+00  2.5468107046E+00  1.3127062633E+00  3.1203012046E+00  1.3957000000E-01  0.0000000000E+00  9.0000000000E+00
 11 1 244 0 0 0 -1.5354157446E+00  1.1185226834E+00  2.2466213969E+00  2.9420915117E+00  5.1000000717E-04  0.0000000000E+00  9.0000000000E+00
 -12 1 244 0 0 0 -4.7900821840E-01  3.6653508497E-01  5.8313653954E-01  8.3895474583E-01  2.9802322388E-08  0.0000000000E+00  9.0000000000E+00
 313 2 244 0 0 0 -1.7116851893E+00  6.4380168578E-01  4.2606901570E+00  4.7151098525E+00  8.5699096230E-01  0.0000000000E+00  9.0000000000E+00
 22 1 245 0 0 0 -1.7775641222E-02 -7.8446829438E-03  1.2841967656E-01  1.2988119879E-01  5.5879354477E-09  0.0000000000E+00  9.0000000000E+00
 22 1 245 0 0 0 -1.8037171832E-01  1.2745052285E-01  2.4696961816E-01  3.3131795128E-01  9.8561916913E-09  0.0000000000E+00  9.0000000000E+00
 -15 2 246 0 0 0 -3.9372584542E-01 -3.3441716644E-01  3.5158530867E+00  3.9731356395E+00  1.7770000000E+00  1.1091201131E-01  9.0000000000E+00
 16 1 246 0 0 0 -4.3227819713E-03  1.0295982850E-01  6.4120286269E-01  6.4943092308E-01 -1.2904784140E-08  0.0000000000E+00  9.0000000000E+00
 311 2 248 0 0 0  2.5843120558E+00 -2.4203575784E+00  7.5449757368E-01  3.6542771689E+00  4.9767000000E-01  0.0000000000E+00  9.0000000000E+00
 211 1 248 0 0 0  9.8671911250E-01 -1.3603284545E+00  8.7685374839E-02  1.6885723618E+00  1.3957000000E-01  0.0000000000E+00  9.0000000000E+00
 311 2 258 0 0 0 -7.9201696559E-01  1.4684797119E-01  2.3381350825E+00  2.5225792938E+00  4.9767000000E-01  0.0000000000E+00  9.0000000000E+00
 111 2 258 0 0 0 -9.1966822376E-01  4.9695371460E-01  1.9225550745E+00  2.1925305587E+00  1.3498000000E-01  1.4490785314E-05  9.0000000000E+00
 -16 1 261 0 0 0 -6.9625859934E-01 -3.8618011523E-01  8.1497903940E-01  1.1393427725E+00  1.4901161194E-08  0.0000000000E+00  9.0000000000E+00
 213 2 261 0 0 0  3.0253275392E-01  5.1762948786E-02  2.7008740473E+00  2.8337928670E+00  8.0090943536E-01  0.0000000000E+00  9.0000000000E+00
 310 2 263 0 0 0  2.5843120558E+00 -2.4203575784E+00  7.5449757368E-01  3.6542771689E+00  4.9767000000E-01  1.6732809325E+01  9.0000000000E+00
 310 2 265 0 0 0 -7.9201696559E-01  1.4684797119E-01  2.3381350825E+00  2.5225792938E+00  4.9767000000E-01  3.4959368850E+01  9.0000000000E+00
 22 1 266 0 0 0 -2.3794799592E-01  1.1810014492E-01  3.8127853971E-01  4.6469368172E-01  1.1780402288E-08  0.0000000000E+00  9.0000000000E+00
 -11 1 266 0 0 0 -2.5743256767E-01  1.2774020296E-01  5.3687968642E-01  6.0895742391E-01  5.1000000020E-04  0.0000000000E+00  9.0000000000E+00
 11 1 266 0 0 0 -4.2428766016E-01  2.5111336672E-01  1.0043968483E+00  1.1188794531E+00  5.1000000129E-04  0.0000000000E+00  9.0000000000E+00
 211 1 268 0 0 0 -2.0816896633E-01 -2.9540880108E-02  4.1034327175E-01  4.8173474829E-01  1.3957000000E-01  0.0000000000E+00  9.0000000000E+00
 111 2 268 0 0 0  5.1070172025E-01  8.1303828894E-02  2.2905307756E+00  2.3520581188E+00  1.3498000000E-01  2.2841719114E-05  9.0000000000E+00
 211 1 269 0 0 0  1.1824885454E+00 -9.4927913661E-01  4.9370542007E-01  1.6008231838E+00  1.3957000000E-01  0.0000000000E+00  9.0000000000E+00
 -211 1 269 0 0 0  1.4018235104E+00 -1.4710784418E+00  2.6079215362E-01  2.0534539850E+00  1.3957000000E-01  0.0000000000E+00  9.0000000000E+00
 211 1 270 0 0 0 -7.1123293079E-01  5.6846792029E-02  2.0929263645E+00  2.2156047462E+00  1.3957000000E-01  0.0000000000E+00  9.0000000000E+00
 -211 1 270 0 0 0 -8.0784034800E-02  9.0001179159E-02  2.4520871806E-01  3.0697454754E-01  1.3957000000E-01  0.0000000000E+00  9.0000000000E+00
 22 1 275 0 0 0  3.3992871467E-02  1.9039913327E-02  3.7902289464E-01  3.8102019405E-01  0.0000000000E+00  0.0000000000E+00  9.0000000000E+00
 22 1 275 0 0 0  4.7670884879E-01  6.2263915567E-02  1.9115078809E+00  1.9710379247E+00 -3.6500241500E-08  0.0000000000E+00  9.0000000000E+00
<weights>9.4354902555E+11</weights>
</event>
<event>
 193 1  1.0000000000E+00  3.6580588166E+02 -1.0000000000E+00  1.1780000000E-01
 11 -9 0 0 0 0  0.0000000000E+00  0.0000000000E+00  1.8250000000E+02  1.8250000000E+02  5.1099700000E-04  0.0000000000E+00  9.0000000000E+00
 -11 -9 0 0 0 0  0.0000000000E+00  0.0000000000E+00 -1.8250000000E+02  1.8250000000E+02  5.1099700000E-04  0.0000000000E+00  9.0000000000E+00
 11 2 1 2 0 0  0.0000000000E+00  0.0000000000E+00  1.8334853244E+02  1.8334853244E+02  5.1099859771E-04  0.0000000000E+00  9.0000000000E+00
 -11 2 1 2 0 0  0.0000000000E+00  0.0000000000E+00 -1.8252743583E+02  1.8252743583E+02  5.1099859771E-04  0.0000000000E+00  9.0000000000E+00
 11 -1 3 0 0 0  0.0000000000E+00  0.0000000000E+00  1.8328000124E+02  1.8328000124E+02  5.1099700000E-04  0.0000000000E+00  9.0000000000E+00
 -11 -1 4 0 0 0  0.0000000000E+00  0.0000000000E+00 -1.8252665615E+02  1.8252665615E+02  5.1099700000E-04  0.0000000000E+00  9.0000000000E+00
 22 1 3 0 0 0  0.0000000000E+00  0.0000000000E+00  6.8531201667E-02  6.8531201667E-02  0.0000000000E+00  0.0000000000E+00  9.0000000000E+00
 22 1 4 0 0 0  0.0000000000E+00  0.0000000000E+00 -7.7967920696E-04  7.7967920696E-04  0.0000000000E+00  0.0000000000E+00  9.0000000000E+00
 6 2 5 6 501 0 -2.7572851731E+01  5.1179191514E+01  1.0879264418E+01  1.8292495781E+02  1.7310000000E+02  0.0000000000E+00  9.0000000000E+00
 -6 2 5 6 0 501  2.7572851731E+01 -5.1179191514E+01 -1.0125919331E+01  1.8288169957E+02  1.7310000000E+02  0.0000000000E+00  9.0000000000E+00
 24 2 9 0 0 0  2.8026265514E+01  6.4335073629E+01 -3.6529679433E+01  1.0852746438E+02  7.4292124663E+01  0.0000000000E+00  9.0000000000E+00
 5 2 9 0 1000 0 -5.5599117245E+01 -1.3155882115E+01  4.7408943851E+01  7.4397493437E+01  4.8000000000E+00  0.0000000000E+00  9.0000000000E+00
 -1 2 11 0 1001 1000 -1.7187527578E+01  5.1712143177E+01 -1.2685714848E+01  5.5951703437E+01  3.3000000000E-01  0.0000000000E+00  9.0000000000E+00
 2 2 11 0 1002 1001  4.4919637626E+01  1.2234435012E+01 -2.3523331610E+01  5.2162354956E+01  3.3000000000E-01  0.0000000000E+00  9.0000000000E+00
 -24 2 10 0 0 0 -1.1865830901E+01  1.7071180136E+01  3.7448035502E+01  9.0687100510E+01  7.9934796564E+01  0.0000000000E+00  9.0000000000E+00
 -5 2 10 0 1003 1002  3.9438682632E+01 -6.8250371650E+01 -4.7573954833E+01  9.2194599064E+01  4.8000000000E+00  0.0000000000E+00  9.0000000000E+00
 1 2 15 0 1004 1003  4.4291368528E+00 -1.9722746549E+00 -2.3914096554E+01  2.4402869392E+01  3.3000000000E-01  0.0000000000E+00  9.0000000000E+00
 -2 2 15 0 1005 1004 -1.6294967754E+01  1.9043454791E+01  6.1362132056E+01  6.6284231118E+01  3.3000000000E-01  0.0000000000E+00  9.0000000000E+00
 22 1 14 0 0 0  2.4931791491E+00  4.6475222695E+00 -7.6210437418E+00  9.2679940240E+00  0.0000000000E+00  0.0000000000E+00  9.0000000000E+00
 5 2 12 0 1006 1005 -5.3286162142E+01 -1.2680452902E+01  4.7563960550E+01  7.2701989690E+01  4.8000000000E+00  0.0000000000E+00  9.0000000000E+00
 21 2 12 0 1007 1006 -9.1992300105E-01  1.9003758571E-03 -3.1856415847E-02  9.2047638238E-01 -1.4901161194E-08  0.0000000000E+00  9.0000000000E+00
 21 2 12 0 1008 1007 -1.0988766358E+00 -8.8834148814E-02 -4.4379325768E-01  1.1884333479E+00  0.0000000000E+00  0.0000000000E+00  9.0000000000E+00
 -5 2 16 0 0 1008  3.9438682632E+01 -6.8250371650E+01 -4.7573954833E+01  9.2194599064E+01  4.8000000000E+00  0.0000000000E+00  9.0000000000E+00
 -1 2 13 0 0 1009 -1.2928619997E+01  4.0883683421E+01 -7.5680041704E+00  4.3543178251E+01  3.3000000000E-01  0.0000000000E+00  9.0000000000E+00
 21 2 13 0 1009 1010 -2.7569563267E+00  7.5971635226E+00 -4.5043199170E+00  9.2523834600E+00 -1.6858739404E-07  0.0000000000E+00  9.0000000000E+00
 21 2 14 0 1010 1011 -1.6317886456E-01  1.4042324146E-01  2.1617303502E-01  3.0508492203E-01  0.0000000000E+00  0.0000000000E+00  9.0000000000E+00
 21 2 14 0 1011 1012  1.6482037254E+01  5.0388332017E+00 -7.3826039531E+00  1.8749672882E+01 -2.3841857910E-07  0.0000000000E+00  9.0000000000E+00
 21 2 14 0 1012 1013  2.1106503490E+01  4.2869093739E+00 -7.5522835747E+00  2.2823213375E+01 -3.3717478809E-07  0.0000000000E+00  9.0000000000E+00
 2 2 14 0 1013 0  3.4991453430E+00  1.3520431592E+00 -1.7969641369E+00  4.1725314792E+00  3.3000000000E-01  0.0000000000E+00  9.0000000000E+00
 -2 2 18 0 0 1014 -1.6964709421E+01  1.8168405336E+01  6.0070611179E+01  6.5011380124E+01  3.3000000000E-01  0.0000000000E+00  9.0000000000E+00
 21 2 18 0 1014 1015  9.2451441495E-01  6.4566460525E-01  1.7774550520E-01  1.1415792353E+00  0.0000000000E+00  0.0000000000E+00  9.0000000000E+00
 21 2 17 0 1015 1016  3.4475730241E+00 -1.2570296067E+00 -3.8488383216E+00  5.3178416312E+00  0.0000000000E+00  0.0000000000E+00  9.0000000000E+00
 21 2 17 0 1016 1017 -8.1624809744E-01 -1.1426684788E+00 -6.6501842440E+00  6.7968303413E+00  8.4293697022E-08  0.0000000000E+00  9.0000000000E+00
 1 2 17 0 1017 0  1.5430391787E+00  6.5680827963E-01 -1.2301298616E+01  1.2419469178E+01  3.3000000000E-01  0.0000000000E+00  9.0000000000E+00
 92 2 20 23 0 0 -1.5866279147E+01 -8.1017758325E+01 -4.8564395606E-01  1.6700549848E+02  1.4517225870E+02  0.0000000000E+00  9.0000000000E+00
 -515 2 35 0 0 0 -4.8903952046E+01 -1.1179440860E+01  4.3213945341E+01  6.6464787037E+01  5.7919271706E+00  0.0000000000E+00  9.0000000000E+00
 -213 2 35 0 0 0 -2.2989914134E+00 -1.2288566221E+00  1.5801777304E+00  3.1211666110E+00  6.7027549393E-01  0.0000000000E+00  9.0000000000E+00
 223 2 35 0 0 0 -1.1149132466E+00  1.2664038928E-02  4.0600968718E-01  1.4197149379E+00  7.7945796138E-01  0.0000000000E+00  9.0000000000E+00
 111 2 35 0 0 0 -3.4462774414E-01 -2.3199211862E-01  9.4763074453E-01  1.0434616684E+00  1.3498000000E-01  5.6948847189E-05  9.0000000000E+00
 10111 2 35 0 0 0 -1.6482186548E+00  3.3883318523E-02  6.7924057495E-01  2.0521498198E+00  1.0159617664E+00  0.0000000000E+00  9.0000000000E+00
 111 2 35 0 0 0  1.5268615664E-02 -9.8947399820E-01  4.6822044053E-01  1.1030602454E+00  1.3498000000E-01  8.7445852740E-06  9.0000000000E+00
 2212 1 35 0 0 0  3.3204631232E-01 -1.9374612787E+00 -2.6399840140E+00  3.4225541847E+00  9.3827000000E-01  0.0000000000E+00  9.0000000000E+00
 -5122 2 35 0 0 0  3.8097109030E+01 -6.5497080805E+01 -4.5140884461E+01  8.8378603979E+01  5.6410000000E+00  1.5868665650E-01  9.0000000000E+00
 92 2 24 29 0 0  2.5238930899E+01  5.9299055920E+01 -2.8588002717E+01  9.8846064369E+01  6.9281230330E+01  0.0000000000E+00  9.0000000000E+00
 215 2 44 0 0 0 -1.0434704573E+01  3.0730130165E+01 -6.4142259990E+00  3.3108395654E+01  1.3414947538E+00  0.0000000000E+00  9.0000000000E+00
 -211 1 44 0 0 0 -7.0126120115E-01  4.8060986574E+00 -9.6339442620E-01  4.9535805416E+00  1.3957000000E-01  0.0000000000E+00  9.0000000000E+00
 111 2 44 0 0 0 -3.0227916382E-01  7.5134058112E-01 -5.0959901390E-01  9.6633126674E-01  1.3498000000E-01  1.7230003180E-05  9.0000000000E+00
 223 2 44 0 0 0 -2.6352819577E+00  7.4836767371E+00 -1.8741569577E+00  8.1898885682E+00  7.8210098783E-01  0.0000000000E+00  9.0000000000E+00
 10113 2 44 0 0 0 -1.1074182819E+00  2.2362856826E+00 -8.8382706449E-01  2.8961023634E+00  1.1742698642E+00  0.0000000000E+00  9.0000000000E+00
 211 1 44 0 0 0  3.3959746461E-01  1.3345948017E+00 -9.0740543704E-01  1.6550933916E+00  1.3957000000E-01  0.0000000000E+00  9.0000000000E+00
 -2224 2 44 0 0 0  5.1063579477E-03  1.4322376356E+00 -9.6884439133E-01  2.1114290020E+00  1.2116692024E+00  0.0000000000E+00  9.0000000000E+00
 2224 2 44 0 0 0  2.4402351073E+00  1.3347408313E+00 -1.2371639025E+00  3.2860434348E+00  1.2374273586E+00  0.0000000000E+00  9.0000000000E+00
 -10211 2 44 0 0 0  6.6708213062E+00  1.3734107384E+00 -2.2956918690E+00  7.2505372300E+00  9.5602040265E-01  0.0000000000E+00  9.0000000000E+00
 111 2 44 0 0 0  1.0648473278E+01  2.3829616708E+00 -3.7803758174E+00  1.1548937197E+01  1.3498000000E-01  6.1685198896E-06  9.0000000000E+00
 -311 2 44 0 0 0  4.3115825094E+00  1.3786882015E+00 -2.2045185886E+00  5.0594567424E+00  4.9767000000E-01  0.0000000000E+00  9.0000000000E+00
 325 2 44 0 0 0  1.6004060054E+01  4.0548902175E+00 -6.5487992499E+00  1.7820268976E+01  1.4502213283E+00  0.0000000000E+00  9.0000000000E+00
 92 2 30 34 0 0 -1.1865830901E+01  1.7071180136E+01  3.7448035502E+01  9.0687100510E+01  7.9934796564E+01  0.0000000000E+00  9.0000000000E+00
 -211 1 57 0 0 0 -2.1789692248E+00  2.2174234608E+00  7.7523727931E+00  8.3536601197E+00  1.3957000000E-01  0.0000000000E+00  9.0000000000E+00
 113 2 57 0 0 0 -6.5447223936E+00  6.9804024018E+00  2.3338157031E+01  2.5233869907E+01  7.2056088306E-01  0.0000000000E+00  9.0000000000E+00
 10223 2 57 0 0 0 -5.8692824026E+00  6.2936678093E+00  1.9984944656E+01  2.1792048522E+01  1.1985972930E+00  0.0000000000E+00  9.0000000000E+00
 223 2 57 0 0 0 -1.6564337049E+00  1.9834322931E+00  4.8615139144E+00  5.5596525822E+00  7.7307374531E-01  0.0000000000E+00  9.0000000000E+00
 211 1 57 0 0 0 -6.1871862084E-01  9.0407283779E-01  3.5339470545E+00  3.7024886221E+00  1.3957000000E-01  0.0000000000E+00  9.0000000000E+00
 -213 2 57 0 0 0  1.4664465756E-01 -3.9966111295E-02  3.9926308488E-01  8.0942595888E-01  6.8750085551E-01  0.0000000000E+00  9.0000000000E+00
 223 2 57 0 0 0  1.0277293714E+00 -2.3120461076E-01 -9.5972463370E-01  1.6199869339E+00  7.7045639777E-01  0.0000000000E+00  9.0000000000E+00
 213 2 57 0 0 0  1.5367026066E+00 -8.3482578005E-02 -1.0533591440E+00  2.0113897617E+00  7.5345805796E-01  0.0000000000E+00  9.0000000000E+00
 10223 2 57 0 0 0 -4.4283653559E-01 -2.9243465787E-01 -1.3251548931E+00  1.8359206624E+00  1.1545332225E+00  0.0000000000E+00  9.0000000000E+00
 10223 2 57 0 0 0  1.1643386377E+00 -2.5741780520E-01 -4.6151514629E+00  4.8757634725E+00  1.0254257773E+00  0.0000000000E+00  9.0000000000E+00
 -321 1 57 0 0 0  7.9435041184E-01 -8.8067660618E-01 -2.1533369820E+00  2.5074060260E+00  4.9360000000E-01  0.0000000000E+00  9.0000000000E+00
 313 2 57 0 0 0  7.7536629650E-01  4.7736370233E-01 -1.2315435916E+01  1.2385487942E+01  9.4935808012E-01  0.0000000000E+00  9.0000000000E+00
 -523 2 36 0 0 0 -4.7054201821E+01 -1.0987315137E+01  4.1603068500E+01  6.3984277808E+01  5.3248000000E+00  0.0000000000E+00  9.0000000000E+00
 211 1 36 0 0 0 -1.2236530838E+00 -6.5379100266E-02  1.0612201023E+00  1.6270430808E+00  1.3957000000E-01  0.0000000000E+00  9.0000000000E+00
 111 2 36 0 0 0 -6.2609714122E-01 -1.2674662248E-01  5.4965673835E-01  8.5346614869E-01  1.3498000000E-01  1.1061787273E-05  9.0000000000E+00
 -211 1 37 0 0 0 -8.2610197172E-01 -5.0326901587E-01  2.6361881311E-01  1.0122740901E+00  1.3957000000E-01  0.0000000000E+00  9.0000000000E+00
 111 2 37 0 0 0 -1.4728894417E+00 -7.2558760619E-01  1.3165589173E+00  2.1088925209E+00  1.3498000000E-01  1.4779732720E-05  9.0000000000E+00
 -211 1 38 0 0 0 -7.9479194969E-02 -1.4331889912E-01  1.0114856399E-01  2.3784042166E-01  1.3957000000E-01  0.0000000000E+00  9.0000000000E+00
 211 1 38 0 0 0 -7.3075926297E-01  1.8231726383E-01  3.5431779036E-01  8.4396064279E-01  1.3957000000E-01  0.0000000000E+00  9.0000000000E+00
 111 2 38 0 0 0 -3.0467478866E-01 -2.6334325782E-02 -4.9456667173E-02  3.3791387347E-01  1.3498000000E-01  4.5080436551E-06  9.0000000000E+00
 22 1 39 0 0 0 -8.6102160773E-03 -5.7374216557E-02  1.1783420924E-01  1.3134244331E-01 -3.7252902985E-09  0.0000000000E+00  9.0000000000E+00
 22 1 39 0 0 0 -3.3601752806E-01 -1.7461790207E-01  8.2979653529E-01  9.1211922514E-01  1.8250120750E-08  0.0000000000E+00  9.0000000000E+00
 221 2 40 0 0 0 -1.4675615648E+00 -1.1614298471E-01  7.9167130627E-01  1.7588834808E+00  5.4745000000E-01  0.0000000000E+00  9.0000000000E+00
 111 2 40 0 0 0 -1.8065709002E-01  1.5002630323E-01 -1.1243073132E-01  2.9326633899E-01  1.3498000000E-01  3.1564886614E-05  9.0000000000E+00
 22 1 41 0 0 0  2.5870612531E-02 -1.1497191089E-01  1.7359883220E-02  1.1911840509E-01 -1.3170890160E-09  0.0000000000E+00  9.0000000000E+00
 22 1 41 0 0 0 -1.0601996867E-02 -8.7450208731E-01  4.5086055731E-01  9.8394184035E-01  1.4901161194E-08  0.0000000000E+00  9.0000000000E+00
 14 1 43 0 0 0  1.0518639270E+01 -1.7006778561E+01 -1.2788620142E+01  2.3736492880E+01  3.3717478809E-07  0.0000000000E+00  9.0000000000E+00
 -13 1 43 0 0 0  1.7017065974E+01 -2.8300637962E+01 -1.7880572411E+01  3.7553064817E+01  1.0566000000E-01  0.0000000000E+00  9.0000000000E+00
 -4122 2 43 0 0 0  1.0561403786E+01 -2.0189664282E+01 -1.4471691908E+01  2.7089046282E+01  2.2849000000E+00  1.1073683740E-01  9.0000000000E+00
 113 2 45 0 0 0 -3.8856781692E+00  1.0945752020E+01 -2.3213177260E+00  1.1869687046E+01  7.7004706403E-01  0.0000000000E+00  9.0000000000E+00
 211 1 45 0 0 0 -6.5490264042E+00  1.9784378145E+01 -4.0929082730E+00  2.1238708608E+01  1.3957000000E-01  0.0000000000E+00  9.0000000000E+00
 22 1 47 0 0 0 -7.3132161247E-03  3.7784573135E-02 -6.4494337161E-02  7.5104438104E-02 -2.2812650937E-09  0.0000000000E+00  9.0000000000E+00
 22 1 47 0 0 0 -2.9496594770E-01  7.1355600798E-01 -4.4510467674E-01  8.9122682863E-01  0.0000000000E+00  0.0000000000E+00  9.0000000000E+00
 -211 1 48 0 0 0 -5.2910027792E-01  2.0211139789E+00 -6.3209530679E-01  2.1872066847E+00  1.3957000000E-01  0.0000000000E+00  9.0000000000E+00
 211 1 48 0 0 0 -1.1020417289E+00  2.6779496236E+00 -7.9248801145E-01  3.0055660352E+00  1.3957000000E-01  0.0000000000E+00  9.0000000000E+00
 111 2 48 0 0 0 -1.0041399509E+00  2.7846131346E+00 -4.4957363946E-01  2.9971158483E+00  1.3498000000E-01  7.0496392172E-05  9.0000000000E+00
 223 2 49 0 0 0 -8.3709749313E-01  2.1565737564E+00 -7.3121136186E-01  2.5483402707E+00  7.7963164356E-01  0.0000000000E+00  9.0000000000E+00
 111 2 49 0 0 0 -2.7032078876E-01  7.9711926169E-02 -1.5261570263E-01  3.4776209267E-01  1.3498000000E-01  2.0274580840E-05  9.0000000000E+00
 -2212 1 51 0 0 0  2.6733587253E-02  1.4327894887E+00 -9.7335631521E-01  1.9701201773E+00  9.3827000000E-01  0.0000000000E+00  9.0000000000E+00
 -211 1 51 0 0 0 -2.1627229305E-02 -5.5185309259E-04  4.5119238826E-03  1.4130882473E-01  1.3957000000E-01  0.0000000000E+00  9.0000000000E+00
 2212 1 52 0 0 0  2.1808230163E+00  9.6196081223E-01 -9.5725584111E-01  2.7346017939E+00  9.3827000000E-01  0.0000000000E+00  9.0000000000E+00
 211 1 52 0 0 0  2.5941209094E-01  3.7278001906E-01 -2.7990806142E-01  5.5144164087E-01  1.3957000000E-01  0.0000000000E+00  9.0000000000E+00
 221 2 53 0 0 0  4.6144642250E+00  1.1265065417E+00 -1.3424385301E+00  4.9663004119E+00  5.4745000000E-01  0.0000000000E+00  9.0000000000E+00
 -211 1 53 0 0 0  2.0563570812E+00  2.4690419673E-01 -9.5325333891E-01  2.2842368180E+00  1.3957000000E-01  0.0000000000E+00  9.0000000000E+00
 22 1 54 0 0 0  6.4370244180E+00  1.5034882326E+00 -2.3152925147E+00  7.0040231048E+00  1.6858739404E-07  0.0000000000E+00  9.0000000000E+00
 22 1 54 0 0 0  4.2114488596E+00  8.7947343812E-01 -1.4650833027E+00  4.5449140926E+00  0.0000000000E+00  0.0000000000E+00  9.0000000000E+00
 310 2 55 0 0 0  4.3115825094E+00  1.3786882015E+00 -2.2045185886E+00  5.0594567424E+00  4.9767000000E-01  1.4424430020E+01  9.0000000000E+00
 321 1 56 0 0 0  7.5845025677E+00  2.4833737793E+00 -3.4911366442E+00  8.7248782545E+00  4.9360000000E-01  0.0000000000E+00  9.0000000000E+00
 111 2 56 0 0 0  8.4195574859E+00  1.5715164382E+00 -3.0576626056E+00  9.0953907219E+00  1.3498000000E-01  6.8806538178E-06  9.0000000000E+00
 -211 1 59 0 0 0 -4.1395584801E+00  3.9469119565E+00  1.4057868879E+01  1.5177523369E+01  1.3957000000E-01  0.0000000000E+00  9.0000000000E+00
 211 1 59 0 0 0 -2.4051639135E+00  3.0334904453E+00  9.2802881511E+00  1.0056346538E+01  1.3957000000E-01  0.0000000000E+00  9.0000000000E+00
 213 2 60 0 0 0 -4.5685309878E+00  5.1784222845E+00  1.6704296281E+01  1.8088285521E+01  6.8192822098E-01  0.0000000000E+00  9.0000000000E+00
 -211 1 60 0 0 0 -1.3007514149E+00  1.1152455248E+00  3.2806483745E+00  3.7037630008E+00  1.3957000000E-01  0.0000000000E+00  9.0000000000E+00
 -211 1 61 0 0 0 -7.6603203166E-01  1.0222878272E+00  2.9346058366E+00  3.2036336676E+00  1.3957000000E-01  0.0000000000E+00  9.0000000000E+00
 211 1 61 0 0 0 -4.2323715405E-01  4.9169040827E-01  7.7345298193E-01  1.0191165028E+00  1.3957000000E-01  0.0000000000E+00  9.0000000000E+00
 111 2 61 0 0 0 -4.6716451917E-01  4.6945405761E-01  1.1534550958E+00  1.3369024118E+00  1.3498000000E-01  7.6406608387E-05  9.0000000000E+00
 -211 1 63 0 0 0  8.0828181225E-02  2.9397196910E-01  2.2591325164E-01  4.0431336320E-01  1.3957000000E-01  0.0000000000E+00  9.0000000000E+00
 111 2 63 0 0 0  6.5816476338E-02 -3.3393808040E-01  1.7334983324E-01  4.0511259568E-01  1.3498000000E-01  4.7946415604E-05  9.0000000000E+00
 -211 1 64 0 0 0  5.6741169560E-01 -2.8308551491E-01 -3.0414589497E-01  7.1699229520E-01  1.3957000000E-01  0.0000000000E+00  9.0000000000E+00
 211 1 64 0 0 0  2.8810722305E-01 -1.1335937616E-01 -4.2999202522E-01  5.4793160777E-01  1.3957000000E-01  0.0000000000E+00  9.0000000000E+00
 111 2 64 0 0 0  1.7221045271E-01  1.6524028031E-01 -2.2558671350E-01  3.5506303098E-01  1.3498000000E-01  3.1018677098E-05  9.0000000000E+00
 211 1 65 0 0 0  1.4421863951E-01  1.7389544650E-01 -3.0379291733E-01  4.0349543221E-01  1.3957000000E-01  0.0000000000E+00  9.0000000000E+00
 111 2 65 0 0 0  1.3924839671E+00 -2.5737802450E-01 -7.4956622662E-01  1.6078943294E+00  1.3498000000E-01  3.2997734161E-05  9.0000000000E+00
 113 2 66 0 0 0 -1.8581011978E-01 -5.4337653612E-03 -7.4575853545E-01  1.1271528370E+00  8.2447728799E-01  0.0000000000E+00  9.0000000000E+00
 111 2 66 0 0 0 -2.5702641580E-01 -2.8700089251E-01 -5.7939635762E-01  7.0876782542E-01  1.3498000000E-01  2.8547020858E-06  9.0000000000E+00
 213 2 67 0 0 0  1.0050297745E+00 -4.6042938275E-01 -3.7822640595E+00  3.9927152144E+00  6.4356297544E-01  0.0000000000E+00  9.0000000000E+00
 -211 1 67 0 0 0  1.5930886320E-01  2.0301157755E-01 -8.3288740340E-01  8.8304825811E-01  1.3957000000E-01  0.0000000000E+00  9.0000000000E+00
 321 1 69 0 0 0  6.5505272747E-01  7.9375450606E-02 -6.2287684054E+00  6.2830399765E+00  4.9360000000E-01  0.0000000000E+00  9.0000000000E+00
 -211 1 69 0 0 0  1.2031356903E-01  3.9798825172E-01 -6.0866675104E+00  6.1024479654E+00  1.3957000000E-01  0.0000000000E+00  9.0000000000E+00
 -521 2 70 0 0 0 -4.7041179567E+01 -1.0988417503E+01  4.1603253845E+01  6.3971207664E+01  5.2789000000E+00  2.3185043232E-01  9.0000000000E+00
 22 1 70 0 0 0 -1.3022253859E-02  1.1023659334E-03 -1.8534503817E-04  1.3070143802E-02 -1.6708742006E-09  0.0000000000E+00  9.0000000000E+00
 22 1 72 0 0 0 -3.0663260297E-02 -3.4747547503E-02  6.7072641608E-02  8.1525252786E-02 -2.7939677238E-09  0.0000000000E+00  9.0000000000E+00
 22 1 72 0 0 0 -5.9543388092E-01 -9.1999074974E-02  4.8258409674E-01  7.7194089591E-01 -1.4901161194E-08  0.0000000000E+00  9.0000000000E+00
 22 1 74 0 0 0 -7.0100193686E-01 -4.0981072876E-01  6.9400873669E-01  1.0681744593E+00 -2.9802322388E-08  0.0000000000E+00  9.0000000000E+00
 22 1 74 0 0 0 -7.7188750481E-01 -3.1577687743E-01  6.2255018062E-01  1.0407180616E+00 -2.1073424255E-08  0.0000000000E+00  9.0000000000E+00
 22 1 77 0 0 0 -2.7033121258E-02  8.1282001574E-03 -5.0825108951E-02  5.8138188677E-02 -1.8626451492E-09  0.0000000000E+00  9.0000000000E+00
 22 1 77 0 0 0 -2.7764166740E-01 -3.4462525939E-02  1.3684417777E-03  2.7977568480E-01 -7.4505805969E-09  0.0000000000E+00  9.0000000000E+00
 22 1 80 0 0 0 -3.5108455528E-01  2.0743239577E-01  1.8745091389E-01  4.4880553572E-01 -9.1250603750E-09  0.0000000000E+00  9.0000000000E+00
 22 1 80 0 0 0 -1.1164770095E+00 -3.2357538048E-01  6.0422039238E-01  1.3100779451E+00 -2.1073424255E-08  0.0000000000E+00  9.0000000000E+00
 22 1 81 0 0 0 -1.3819057410E-01  2.7342946855E-02 -6.3600258048E-02  1.5456152282E-01 -1.8626451492E-09  0.0000000000E+00  9.0000000000E+00
 22 1 81 0 0 0 -4.2466515917E-02  1.2268335638E-01 -4.8830473276E-02  1.3870481616E-01 -1.8626451492E-09  0.0000000000E+00  9.0000000000E+00
 -2112 1 86 0 0 0  7.0638315283E+00 -1.1494014919E+01 -8.7217478362E+00  1.6092289207E+01  9.3957000000E-01  0.0000000000E+00  9.0000000000E+00
 -211 1 86 0 0 0  3.4975722578E+00 -8.6956493630E+00 -5.7499440717E+00  1.0996757074E+01  1.3957000000E-01  0.0000000000E+00  9.0000000000E+00
 -211 1 87 0 0 0 -3.2265773025E+00  8.3537078154E+00 -1.9474552138E+00  9.1655494625E+00  1.3957000000E-01  0.0000000000E+00  9.0000000000E+00
 211 1 87 0 0 0 -6.5910086674E-01  2.5920442041E+00 -3.7386251225E-01  2.7041375837E+00  1.3957000000E-01  0.0000000000E+00  9.0000000000E+00
 22 1 93 0 0 0 -8.7095791740E-01  2.2701501221E+00 -3.5276554180E-01  2.4569478623E+00  5.1619136559E-08  0.0000000000E+00  9.0000000000E+00
 22 1 93 0 0 0 -1.3318203350E-01  5.1446301255E-01 -9.6808097660E-02  5.4016798600E-01  1.4901161194E-08  0.0000000000E+00  9.0000000000E+00
 211 1 94 0 0 0 -5.4801794230E-01  7.4319798254E-01 -2.5286011398E-01  9.6751482080E-01  1.3957000000E-01  0.0000000000E+00  9.0000000000E+00
 -211 1 94 0 0 0 -3.3413530584E-02  5.8136342983E-01 -4.8649263644E-02  6.0078818008E-01  1.3957000000E-01  0.0000000000E+00  9.0000000000E+00
 111 2 94 0 0 0 -2.5566602025E-01  8.3201234408E-01 -4.2970198423E-01  9.8003726983E-01  1.3498000000E-01  4.2671933472E-05  9.0000000000E+00
 22 1 95 0 0 0 -1.7497020585E-01 -1.1735163298E-02 -1.1740388679E-01  2.1103544637E-01  2.6341780319E-09  0.0000000000E+00  9.0000000000E+00
 22 1 95 0 0 0 -9.5350582916E-02  9.1447089466E-02 -3.5211815844E-02  1.3672664630E-01 -4.5625301875E-09  0.0000000000E+00  9.0000000000E+00
 211 1 100 0 0 0  1.3012893807E+00  4.4144654282E-01 -3.4563614240E-01  1.4237883376E+00  1.3957000000E-01  0.0000000000E+00  9.0000000000E+00
 -211 1 100 0 0 0  1.0104967967E+00  2.6981575599E-01 -2.8141624234E-01  1.0920527481E+00  1.3957000000E-01  0.0000000000E+00  9.0000000000E+00
 111 2 100 0 0 0  2.3026780475E+00  4.1524424286E-01 -7.1538614537E-01  2.4504593262E+00  1.3498000000E-01  4.2078186225E-05  9.0000000000E+00
 -211 1 104 0 0 0  2.4538492488E+00  9.4982198552E-01 -1.4180720782E+00  2.9923145129E+00  1.3957000000E-01  0.0000000000E+00  9.0000000000E+00
 211 1 104 0 0 0  1.8577332605E+00  4.2886621596E-01 -7.8644651047E-01  2.0671422296E+00  1.3957000000E-01  0.0000000000E+00  9.0000000000E+00
 22 1 106 0 0 0  3.8743092263E+00  6.7932502848E-01 -1.3493046668E+00  4.1584104607E+00 -8.4293697022E-08  0.0000000000E+00  9.0000000000E+00
 22 1 106 0 0 0  4.5452482596E+00  8.9219140976E-01 -1.7083579389E+00  4.9369802613E+00 -1.1920928955E-07  0.0000000000E+00  9.0000000000E+00
 211 1 109 0 0 0 -1.6913914188E+00  2.3800427161E+00  6.9714591039E+00  7.5595059418E+00  1.3957000000E-01  0.0000000000E+00  9.0000000000E+00
 111 2 109 0 0 0 -2.8771395690E+00  2.7983795683E+00  9.7328371773E+00  1.0528779579E+01  1.3498000000E-01  1.8838751917E-05  9.0000000000E+00
 22 1 113 0 0 0 -3.0891982642E-01  3.5686583155E-01  7.0750971634E-01  8.5050260410E-01  0.0000000000E+00  0.0000000000E+00  9.0000000000E+00
 22 1 113 0 0 0 -1.5824469275E-01  1.1258822606E-01  4.4594537950E-01  4.8639980769E-01 -1.0536712128E-08  0.0000000000E+00  9.0000000000E+00
 22 1 115 0 0 0  7.5341409597E-02 -3.4305077672E-01  1.5873415702E-01  3.8543053331E-01  0.0000000000E+00  0.0000000000E+00  9.0000000000E+00
 22 1 115 0 0 0 -9.5249332590E-03  9.1126963192E-03  1.4615676216E-02  1.9682062368E-02  6.5854450798E-10  0.0000000000E+00  9.0000000000E+00
 22 1 118 0 0 0  9.7488309494E-02  1.7246478801E-01 -1.7681768861E-01  2.6554202793E-01  0.0000000000E+00  0.0000000000E+00  9.0000000000E+00
 22 1 118 0 0 0  7.4722143216E-02 -7.2245076997E-03 -4.8769024895E-02  8.9521003052E-02  1.8626451492E-09  0.0000000000E+00  9.0000000000E+00
 22 1 120 0 0 0  1.1339840154E+00 -2.1650294563E-01 -6.6784468251E-01  1.3337202827E+00  3.3320009373E-08  0.0000000000E+00  9.0000000000E+00
 22 1 120 0 0 0  2.5849995175E-01 -4.0875078872E-02 -8.1721544111E-02  2.7417404673E-01  7.4505805969E-09  0.0000000000E+00  9.0000000000E+00
 211 1 121 0 0 0 -2.8878958772E-01  1.9993951060E-01 -4.9981936666E-02  3.8125216428E-01  1.3957000000E-01  0.0000000000E+00  9.0000000000E+00
 -211 1 121 0 0 0  1.0297946794E-01 -2.0537327596E-01 -6.9577659878E-01  7.4590067275E-01  1.3957000000E-01  0.0000000000E+00  9.0000000000E+00
 22 1 122 0 0 0 -3.0160117174E-02  2.5422771607E-03 -1.1974825631E-02  3.2549843164E-02  2.6750204370E-09  0.0000000000E+00  9.0000000000E+00
 22 1 122 0 0 0 -2.2686629863E-01 -2.8954316967E-01 -5.6742153199E-01  6.7621798225E-01  2.1073424255E-08  0.0000000000E+00  9.0000000000E+00
 211 1 123 0 0 0  5.4312890227E-02 -8.2980866042E-02 -1.1967342076E+00  1.2089202880E+00  1.3957000000E-01  0.0000000000E+00  9.0000000000E+00
 111 2 123 0 0 0  9.5071688430E-01 -3.7744851671E-01 -2.5855298519E+00  2.7837949264E+00  1.3498000000E-01  1.1746248632E-05  9.0000000000E+00
 421 2 127 0 0 0 -1.3421561797E+01 -4.0623095803E+00  1.3749591655E+01  1.9727349318E+01  1.8645000000E+00  1.5850438928E-02  9.0000000000E+00
 -211 1 127 0 0 0 -3.2117444311E+00 -6.9913434249E-01  2.1420155156E+00  3.9257867203E+00  1.3957000000E-01  0.0000000000E+00  9.0000000000E+00
 221 2 127 0 0 0 -1.6252964124E+01 -3.3639798638E+00  1.3322172593E+01  2.1289790686E+01  5.4745000000E-01  0.0000000000E+00  9.0000000000E+00
 111 2 127 0 0 0 -1.4154909214E+01 -2.8629937161E+00  1.2389474082E+01  1.9028280939E+01  1.3498000000E-01  9.6063160461E-06  9.0000000000E+00
 22 1 147 0 0 0 -1.6641413309E-01  3.9466300819E-01 -2.6819952921E-01  5.0535486660E-01  7.4505805969E-09  0.0000000000E+00  9.0000000000E+00
 22 1 147 0 0 0 -8.9251887156E-02  4.3734933588E-01 -1.6150245502E-01  4.7468240323E-01  9.1250603750E-09  0.0000000000E+00  9.0000000000E+00
 22 1 152 0 0 0  3.0745870411E-01  7.7640727021E-02 -1.4020428434E-01  3.4672204800E-01  8.3300023433E-09  0.0000000000E+00  9.0000000000E+00
 22 1 152 0 0 0  1.9952193434E+00  3.3760351584E-01 -5.7518186103E-01  2.1037372782E+00  2.9802322388E-08  0.0000000000E+00  9.0000000000E+00
 22 1 158 0 0 0 -1.8015840871E+00  1.8351650521E+00  6.3005971135E+00  6.8052229925E+00  0.0000000000E+00  0.0000000000E+00  9.0000000000E+00
 22 1 158 0 0 0 -1.0755554818E+00  9.6321451628E-01  3.4322400638E+00  3.7235565867E+00  4.2146848511E-08  0.0000000000E+00  9.0000000000E+00
 22 1 172 0 0 0  1.0189584906E-01 -2.9777786044E-02 -1.7548828156E-01  2.0509904330E-01  5.2683560639E-09  0.0000000000E+00  9.0000000000E+00
 22 1 172 0 0 0  8.4882103524E-01 -3.4767073067E-01 -2.4100415703E+00  2.5786958831E+00 -4.2146848511E-08  0.0000000000E+00  9.0000000000E+00
 -311 2 173 0 0 0 -6.0976216572E+00 -2.5163604465E+00  7.2333231547E+00  9.8021272723E+00  4.9767000000E-01  0.0000000000E+00  9.0000000000E+00
 111 2 173 0 0 0 -7.3239401401E+00 -1.5459491338E+00  6.5162685002E+00  9.9252220462E+00  1.3498000000E-01  1.9921728347E-05  9.0000000000E+00
 22 1 175 0 0 0 -5.7678278613E+00 -1.3748525401E+00  4.5114145281E+00  7.4505649980E+00 -1.6858739404E-07  0.0000000000E+00  9.0000000000E+00
 22 1 175 0 0 0 -1.0485136263E+01 -1.9891273237E+00  8.8107580650E+00  1.3839225688E+01 -2.3841857910E-07  0.0000000000E+00  9.0000000000E+00
 22 1 176 0 0 0 -4.8299543623E+00 -9.7157701389E-01  4.3108474144E+00  6.5464361653E+00  1.1920928955E-07  0.0000000000E+00  9.0000000000E+00
 22 1 176 0 0 0 -9.3249548521E+00 -1.8914167023E+00  8.0786266674E+00  1.2481844774E+01  0.0000000000E+00  0.0000000000E+00  9.0000000000E+00
 130 1 185 0 0 0 -6.0976216572E+00 -2.5163604465E+00  7.2333231547E+00  9.8021272723E+00  4.9767000000E-01  0.0000000000E+00  9.0000000000E+00
 22 1 186 0 0 0 -7.0092898901E+00 -1.4786131958E+00  6.2714902769E+00  9.5209260074E+00 -2.3841857910E-07  0.0000000000E+00  9.0000000000E+00
 22 1 186 0 0 0 -3.1465024999E-01 -6.7335938059E-02  2.4477822329E-01  4.0429603878E-01 -2.3560804577E-08  0.0000000000E+00  9.0000000000E+00
<weights>1.6633669365E+04</weights>
</event>
<event>
 266 1  1.0000000000E+00  3.6500369438E+02 -1.0000000000E+00  1.1780000000E-01
 11 -9 0 0 0 0  0.0000000000E+00  0.0000000000E+00  1.8250000000E+02  1.8250000000E+02  5.1099700000E-04  0.0000000000E+00  9.0000000000E+00
 -11 -9 0 0 0 0  0.0000000000E+00  0.0000000000E+00 -1.8250000000E+02  1.8250000000E+02  5.1099700000E-04  0.0000000000E+00  9.0000000000E+00
 11 2 1 2 0 0  0.0000000000E+00  0.0000000000E+00  1.8228750885E+02  1.8228750885E+02  5.1099147830E-04  0.0000000000E+00  9.0000000000E+00
 -11 2 1 2 0 0  0.0000000000E+00  0.0000000000E+00 -1.8273647962E+02  1.8273647962E+02  5.1099859771E-04  0.0000000000E+00  9.0000000000E+00
 11 -1 3 0 0 0  0.0000000000E+00  0.0000000000E+00  1.8226751863E+02  1.8226751863E+02  5.1099700000E-04  0.0000000000E+00  9.0000000000E+00
 -11 -1 4 0 0 0  0.0000000000E+00  0.0000000000E+00 -1.8273647702E+02  1.8273647702E+02  5.1099700000E-04  0.0000000000E+00  9.0000000000E+00
 22 1 3 0 0 0  0.0000000000E+00  0.0000000000E+00  1.9990221127E-02  1.9990221127E-02  0.0000000000E+00  0.0000000000E+00  9.0000000000E+00
 22 1 4 0 0 0  0.0000000000E+00  0.0000000000E+00 -2.6063889962E-06  2.6063889962E-06  0.0000000000E+00  0.0000000000E+00  9.0000000000E+00
 6 2 5 6 501 0 -4.3552660705E+01 -1.9816373005E+01 -3.2696658336E+01  1.8254370534E+02  1.7310000000E+02  0.0000000000E+00  9.0000000000E+00
 -6 2 5 6 0 501  4.3552660705E+01  1.9816373005E+01  3.2227699947E+01  1.8246029030E+02  1.7310000000E+02  0.0000000000E+00  9.0000000000E+00
 24 2 9 0 0 0  3.1274946495E+01 -3.9006495875E+01 -4.4086542649E+01  1.0431199131E+02  8.0235523869E+01  0.0000000000E+00  9.0000000000E+00
 5 2 9 0 1000 0 -7.4827607200E+01  1.9190122870E+01  1.1389884313E+01  7.8231714028E+01  4.8000000000E+00  0.0000000000E+00  9.0000000000E+00
 -3 2 11 0 1001 1000 -1.4050280569E+01  1.6904785112E+01 -2.3128227507E+00  2.2108398695E+01  5.0000000000E-01  0.0000000000E+00  9.0000000000E+00
 4 2 11 0 1002 1001  4.3318851423E+01 -5.4543313923E+01 -4.0385194754E+01  8.0527696712E+01  1.5000000000E+00  0.0000000000E+00  9.0000000000E+00
 -24 2 10 0 0 0  6.7205887498E+01 -4.1955690465E+01  1.3320797027E+01  1.1349817069E+02  8.0171565036E+01  0.0000000000E+00  9.0000000000E+00
 -5 2 10 0 1003 1002 -2.3653226793E+01  6.1772063470E+01  1.8906902920E+01  6.8962119610E+01  4.8000000000E+00  0.0000000000E+00  9.0000000000E+00
 1 2 15 0 1004 1003 -6.3356912657E+00 -1.1982581324E+01 -2.2768333582E+01  2.6499606659E+01  3.3000000000E-01  0.0000000000E+00  9.0000000000E+00
 -2 2 15 0 1005 1004  7.2566432086E+01 -2.9050015623E+01  3.6053627004E+01  8.6079982537E+01  3.2999999999E-01  0.0000000000E+00  9.0000000000E+00
 5 2 12 0 1006 1005 -6.5630933198E+01  1.2522041091E+01  9.6252567995E+00  6.7675006273E+01  4.8000000000E+00  0.0000000000E+00  9.0000000000E+00
 21 2 12 0 1007 1006 -8.3164067631E+00  2.7170625878E+00  2.0077884724E+00  8.9764283045E+00 -1.6858739404E-07  0.0000000000E+00  9.0000000000E+00
 21 2 12 0 1008 1007  1.1261084025E+00  2.5830521276E+00 -1.6316861028E+00  3.2561753587E+00 -4.2146848511E-08  0.0000000000E+00  9.0000000000E+00
 21 2 16 0 1009 1008 -4.9270399977E-01  8.2817147073E+00  8.1190672051E+00  1.1608135423E+01 -1.6858739404E-07  0.0000000000E+00  9.0000000000E+00
 -5 2 16 0 0 1009 -2.2185376116E+01  5.2567255244E+01  1.0823339320E+01  5.8272565684E+01  4.8000000000E+00  0.0000000000E+00  9.0000000000E+00
 4 2 14 0 1010 0  4.3062709293E+01 -5.4220805387E+01 -4.0146463083E+01  8.0051740559E+01  1.5000000000E+00  0.0000000000E+00  9.0000000000E+00
 21 2 13 0 1011 1010 -1.5296489592E-01  2.6047330900E-01  9.7128696883E-01  1.0171740165E+00  0.0000000000E+00  0.0000000000E+00  9.0000000000E+00
 -3 2 13 0 0 1011 -1.3641173543E+01  1.6321803267E+01 -3.5228413904E+00  2.1567180830E+01  5.0000000000E-01  0.0000000000E+00  9.0000000000E+00
 -2 2 18 0 0 1012  3.3407222085E+00 -2.1298414354E+00  9.3216854126E-01  4.0834406575E+00  3.3000000000E-01  0.0000000000E+00  9.0000000000E+00
 21 2 18 0 1012 1013  6.2601817768E+01 -2.4332144595E+01  3.1744431020E+01  7.4288288103E+01 -9.5367431641E-07  0.0000000000E+00  9.0000000000E+00
 21 2 17 0 1013 1014 -8.8770718454E-01  3.9399342384E-02 -3.0090118287E-01  9.3814597773E-01  0.0000000000E+00  0.0000000000E+00  9.0000000000E+00
 21 2 17 0 1014 1015  1.3643191005E+00 -1.0606074117E+00 -5.5212655035E-01  1.8141384780E+00  0.0000000000E+00  0.0000000000E+00  9.0000000000E+00
 21 2 17 0 1015 1016 -8.0309567082E-01  6.0753895651E-01 -1.5291016297E+00  1.8309063423E+00 -2.1073424255E-08  0.0000000000E+00  9.0000000000E+00
 21 2 17 0 1016 1017 -3.2982946132E+00  3.3118368817E+00 -6.2349817245E-01  4.7154809783E+00 -8.4293697022E-08  0.0000000000E+00  9.0000000000E+00
 21 2 17 0 1017 1018  1.0451739873E+00 -1.8581332931E+00 -5.3238265614E-02  2.1325764492E+00  0.0000000000E+00  0.0000000000E+00  9.0000000000E+00
 1 2 17 0 1018 0  2.8678052249E+00 -1.5610645392E+01 -1.6332440338E+01  2.2776612210E+01  3.3000000000E-01  0.0000000000E+00  9.0000000000E+00
 92 2 19 23 0 0 -9.5499311674E+01  7.8671125758E+01  2.8943765694E+01  1.4978831104E+02  7.9306569679E+01  0.0000000000E+00  9.0000000000E+00
 -533 2 35 0 0 0 -6.6752615337E+01  1.3262928035E+01  1.0333465228E+01  6.9050226095E+01  5.4163000000E+00  0.0000000000E+00  9.0000000000E+00
 -10323 2 35 0 0 0 -2.6636492334E+00  8.7126363260E-01  7.0048109183E-01  3.1619213243E+00  1.2856691428E+00  0.0000000000E+00  9.0000000000E+00
 10223 2 35 0 0 0 -3.4443555063E+00  1.7713612795E+00 -2.8143907075E-01  4.0890752420E+00  1.2806337290E+00  0.0000000000E+00  9.0000000000E+00
 113 2 35 0 0 0  7.7907559488E-02  2.3286783325E-01 -2.5755848674E-01  8.5591172796E-01  7.7842886405E-01  0.0000000000E+00  9.0000000000E+00
 323 2 35 0 0 0 -6.8765776277E-01  2.3184137322E-01  3.0431289628E-01  1.1806288252E+00  8.8014456937E-01  0.0000000000E+00  9.0000000000E+00
 -321 1 35 0 0 0  6.4850223799E-01  6.8873917573E-01 -6.5540290185E-02  1.0690431677E+00  4.9360000000E-01  0.0000000000E+00  9.0000000000E+00
 323 2 35 0 0 0 -5.4016690859E-01  2.2829424561E+00  8.9108561938E-01  2.6768108755E+00  9.3149145750E-01  0.0000000000E+00  9.0000000000E+00
 -321 1 35 0 0 0  3.2082327591E-01  3.2665221503E+00  2.5252206893E+00  4.1705485277E+00  4.9360000000E-01  0.0000000000E+00  9.0000000000E+00
 321 1 35 0 0 0 -1.0817473490E-01  1.1373170670E+00  1.0200042214E+00  1.6091120085E+00  4.9360000000E-01  0.0000000000E+00  9.0000000000E+00
 -323 2 35 0 0 0 -1.3301355339E+00  3.1205056188E+00  5.3046054942E-01  3.5725273458E+00  9.8729295876E-01  0.0000000000E+00  9.0000000000E+00
 213 2 35 0 0 0 -1.3109070182E+00  5.6665654926E+00  3.5239250546E+00  6.8319009447E+00  6.5450823946E-01  0.0000000000E+00  9.0000000000E+00
 221 2 35 0 0 0 -1.0018627215E+00  1.7758189428E+00 -4.7506766945E-02  2.1116865832E+00  5.4745000000E-01  0.0000000000E+00  9.0000000000E+00
 511 2 35 0 0 0 -1.8707019991E+01  4.4362452701E+01  9.7668549579E+00  4.9408918375E+01  5.2792000000E+00  1.3692726391E-01  9.0000000000E+00
 92 2 24 26 0 0  2.9268570854E+01 -3.7638528811E+01 -4.2698017505E+01  1.0263609541E+02  8.0235523869E+01  0.0000000000E+00  9.0000000000E+00
 411 2 49 0 0 0  3.7574590717E+01 -4.7195997660E+01 -3.4608413485E+01  6.9574051406E+01  1.8693000000E+00  7.8147017469E-01  9.0000000000E+00
 10311 2 49 0 0 0  3.9009338737E+00 -6.1027784848E+00 -4.9372134403E+00  8.8724180132E+00  1.3720548552E+00  0.0000000000E+00  9.0000000000E+00
 -321 1 49 0 0 0  1.3455746372E+00 -3.8775472181E-01 -1.7190013769E-01  1.4946957704E+00  4.9360000000E-01  0.0000000000E+00  9.0000000000E+00
 323 2 49 0 0 0 -2.1650555606E-01 -9.3437840131E-02 -7.1651373763E-02  9.4540797049E-01  9.1271957661E-01  0.0000000000E+00  9.0000000000E+00
 -10313 2 49 0 0 0 -1.0495375775E+00  1.0709737841E+00  2.3952076843E-01  1.9944594415E+00  1.2930523163E+00  0.0000000000E+00  9.0000000000E+00
 315 2 49 0 0 0 -1.2286485240E+01  1.5070466111E+01 -3.1483598369E+00  1.9755062804E+01  1.5078688187E+00  0.0000000000E+00  9.0000000000E+00
 92 2 27 34 0 0  6.6230740821E+01 -4.1032596947E+01  1.3285293422E+01  1.1257958920E+02  8.0171565036E+01  0.0000000000E+00  9.0000000000E+00
 -211 1 56 0 0 0  3.1272741276E+00 -1.3868284828E+00  1.6500081227E+00  3.8006766897E+00  1.3957000000E-01  0.0000000000E+00  9.0000000000E+00
 10223 2 56 0 0 0  6.5501901178E+00 -2.8394780792E+00  2.6473732249E+00  7.7146869930E+00  1.2410415246E+00  0.0000000000E+00  9.0000000000E+00
 20213 2 56 0 0 0  1.0509173281E+01 -5.0629896370E+00  5.1922427696E+00  1.2831619276E+01  1.2706223529E+00  0.0000000000E+00  9.0000000000E+00
 113 2 56 0 0 0  2.7302346449E+01 -1.0264299998E+01  1.4031963181E+01  3.2376789409E+01  7.6584964972E-01  0.0000000000E+00  9.0000000000E+00
 -10213 2 56 0 0 0  5.6054029996E+00 -2.0691440026E+00  2.6467339264E+00  6.6562077359E+00  1.2641207436E+00  0.0000000000E+00  9.0000000000E+00
 213 2 56 0 0 0  1.1278684540E+01 -4.2571758506E+00  5.5551492107E+00  1.3282572376E+01  4.8453585690E-01  0.0000000000E+00  9.0000000000E+00
 113 2 56 0 0 0  9.3002880423E-01 -8.3470863583E-01  3.2325500417E-01  1.4935898681E+00  7.5141520675E-01  0.0000000000E+00  9.0000000000E+00
 10223 2 56 0 0 0  9.0260127073E-01 -1.7796227255E-01  4.6673705072E-01  1.5318598527E+00  1.1324272645E+00  0.0000000000E+00  9.0000000000E+00
 -20323 2 56 0 0 0 -8.0724841494E-01  5.7000996280E-01 -6.5217589832E-01  1.8466518307E+00  1.4171196916E+00  0.0000000000E+00  9.0000000000E+00
 10313 2 56 0 0 0 -6.4464186974E-01  2.3659465019E-01 -1.1874116207E+00  1.8851464781E+00  1.2931708001E+00  0.0000000000E+00  9.0000000000E+00
 -311 2 56 0 0 0 -4.8360478120E-01  6.6250667951E-01  9.4143061173E-02  9.6401609408E-01  4.9767000000E-01  0.0000000000E+00  9.0000000000E+00
 10313 2 56 0 0 0 -1.6244398159E+00  1.4815187793E+00 -1.2308144062E+00  2.8298654773E+00  1.2882282051E+00  0.0000000000E+00  9.0000000000E+00
 20223 2 56 0 0 0  4.0317487682E-01 -1.3034046737E+00 -1.5548137142E-02  1.8684214437E+00  1.2764572934E+00  0.0000000000E+00  9.0000000000E+00
 10213 2 56 0 0 0  4.4826256208E-01 -1.0355715049E+00 -1.2693778103E+00  2.1008903306E+00  1.2365567070E+00  0.0000000000E+00  9.0000000000E+00
 113 2 56 0 0 0  4.8388948692E-01 -1.9668588926E+00 -1.3791128622E+00  2.5573838752E+00  7.3183130537E-01  0.0000000000E+00  9.0000000000E+00
 -211 1 56 0 0 0  3.8219753118E-01 -2.1131877454E+00 -1.8589170605E+00  2.8437105730E+00  1.3957000000E-01  0.0000000000E+00  9.0000000000E+00
 331 2 56 0 0 0  1.8674496560E+00 -1.0671617243E+01 -1.1728954334E+01  1.5995500892E+01  9.5754699098E-01  0.0000000000E+00  9.0000000000E+00
 -531 2 36 0 0 0 -6.6548432261E+01  1.3241424608E+01  1.0332636918E+01  6.8844912159E+01  5.3693000000E+00  2.1978013368E-01  9.0000000000E+00
 22 1 36 0 0 0 -2.0418307649E-01  2.1503426715E-02  8.2831019058E-04  2.0531393568E-01  4.5625301875E-09  0.0000000000E+00  9.0000000000E+00
 -311 2 37 0 0 0 -1.2330207923E+00  1.0311907417E-01  2.4457408410E-01  1.3559003389E+00  4.9767000000E-01  0.0000000000E+00  9.0000000000E+00
 -213 2 37 0 0 0 -1.4306284411E+00  7.6814455843E-01  4.5590700774E-01  1.8060209853E+00  6.4584580244E-01  0.0000000000E+00  9.0000000000E+00
 113 2 38 0 0 0 -2.4584711671E+00  1.6468918060E+00 -3.0036517281E-01  3.0860605971E+00  8.2293236163E-01  0.0000000000E+00  9.0000000000E+00
 111 2 38 0 0 0 -9.8588433918E-01  1.2446947347E-01  1.8926102062E-02  1.0030146449E+00  1.3498000000E-01  6.8871189504E-05  9.0000000000E+00
 -211 1 39 0 0 0  8.0239486762E-02  7.3958520696E-02  2.4978942285E-01  3.0623974054E-01  1.3957000000E-01  0.0000000000E+00  9.0000000000E+00
 211 1 39 0 0 0 -2.3319272736E-03  1.5890931255E-01 -5.0734790958E-01  5.4967198742E-01  1.3957000000E-01  0.0000000000E+00  9.0000000000E+00
 321 1 40 0 0 0 -2.9192198464E-01  2.9422987403E-01  3.8425080231E-01  7.5038610259E-01  4.9360000000E-01  0.0000000000E+00  9.0000000000E+00
 111 2 40 0 0 0 -3.9573577813E-01 -6.2388500806E-02 -7.9937906031E-02  4.3024272260E-01  1.3498000000E-01  5.1791806755E-05  9.0000000000E+00
 311 2 42 0 0 0 -4.0764315048E-01  2.1524034291E+00  9.4651291562E-01  2.4377398524E+00  4.9767000000E-01  0.0000000000E+00  9.0000000000E+00
 211 1 42 0 0 0 -1.3252375810E-01  1.3053902700E-01 -5.5427296244E-02  2.3907102313E-01  1.3957000000E-01  0.0000000000E+00  9.0000000000E+00
 -311 2 45 0 0 0 -1.3914814816E+00  2.6453092590E+00  5.1255009920E-01  3.0731522615E+00  4.9767000000E-01  0.0000000000E+00  9.0000000000E+00
 -211 1 45 0 0 0  6.1345947706E-02  4.7519635976E-01  1.7910450229E-02  4.9937508424E-01  1.3957000000E-01  0.0000000000E+00  9.0000000000E+00
 211 1 46 0 0 0 -5.1319632269E-01  1.6622054219E+00  1.3341499241E+00  2.1967551377E+00  1.3957000000E-01  0.0000000000E+00  9.0000000000E+00
 111 2 46 0 0 0 -7.9771069553E-01  4.0043600706E+00  2.1897751305E+00  4.6351458069E+00  1.3498000000E-01  2.2490610745E-05  9.0000000000E+00
 111 2 47 0 0 0 -4.0331929129E-01  6.4128730989E-01 -1.2776700548E-01  7.8003837895E-01  1.3498000000E-01  1.5461469803E-06  9.0000000000E+00
 111 2 47 0 0 0 -4.9534673711E-01  7.8936355808E-01  1.7214091273E-02  9.4179570084E-01  1.3498000000E-01  3.9536716842E-06  9.0000000000E+00
 111 2 47 0 0 0 -1.0319669315E-01  3.4516807480E-01  6.3046147257E-02  3.8985250342E-01  1.3498000000E-01  7.3030514110E-05  9.0000000000E+00
 -413 2 48 0 0 0 -1.0293456176E+01  2.2273590462E+01  4.4074533160E+00  2.5010674058E+01  2.0100000000E+00  0.0000000000E+00  9.0000000000E+00
 10113 2 48 0 0 0 -2.8387549786E+00  7.1018977279E+00  1.6405372881E+00  7.9233700114E+00  1.2621206670E+00  0.0000000000E+00  9.0000000000E+00
 213 2 48 0 0 0 -1.6254474460E+00  4.9982537292E+00  1.5360984154E+00  5.5133741700E+00  6.4271039793E-01  0.0000000000E+00  9.0000000000E+00
 111 2 48 0 0 0 -3.9493613900E+00  9.9887107828E+00  2.1827659384E+00  1.0961500136E+01  1.3498000000E-01  1.1443598471E-05  9.0000000000E+00
 -321 1 50 0 0 0  9.0878323681E+00 -1.1677531751E+01 -8.8714455302E+00  1.7259769167E+01  4.9360000000E-01  0.0000000000E+00  9.0000000000E+00
 211 1 50 0 0 0  2.6591794376E+01 -3.3445187141E+01 -2.4327127176E+01  4.9168411277E+01  1.3957000000E-01  0.0000000000E+00  9.0000000000E+00
 211 1 50 0 0 0  1.8949639727E+00 -2.0732787671E+00 -1.4098407781E+00  3.1458709618E+00  1.3957000000E-01  0.0000000000E+00  9.0000000000E+00
 321 1 51 0 0 0  3.8519121551E+00 -5.3976951935E+00 -4.3941128655E+00  7.9702076188E+00  4.9360000000E-01  0.0000000000E+00  9.0000000000E+00
 -211 1 51 0 0 0  4.9021718542E-02 -7.0508329128E-01 -5.4310057481E-01  9.0221039442E-01  1.3957000000E-01  0.0000000000E+00  9.0000000000E+00
 311 2 53 0 0 0 -3.1060477516E-01  6.7191599123E-02  1.6544281459E-01  6.1321838781E-01  4.9767000000E-01  0.0000000000E+00  9.0000000000E+00
 211 1 53 0 0 0  9.4099219102E-02 -1.6062943925E-01 -2.3709418835E-01  3.3218958268E-01  1.3957000000E-01  0.0000000000E+00  9.0000000000E+00
 -311 2 54 0 0 0 -4.1593369472E-01  3.9230635021E-01  1.9156279315E-01  7.8184195554E-01  4.9767000000E-01  0.0000000000E+00  9.0000000000E+00
 223 2 54 0 0 0 -6.3360388273E-01  6.7866743393E-01  4.7957975287E-02  1.2126174860E+00  7.7852285379E-01  0.0000000000E+00  9.0000000000E+00
 321 1 55 0 0 0 -2.2811254384E+00  2.8999125751E+00 -2.1700456964E-01  3.7287743499E+00  4.9360000000E-01  0.0000000000E+00  9.0000000000E+00
 -211 1 55 0 0 0 -1.0005359802E+01  1.2170553536E+01 -2.9313552672E+00  1.6026288455E+01  1.3957000000E-01  0.0000000000E+00  9.0000000000E+00
 113 2 58 0 0 0  5.2539047939E+00 -2.6281066560E+00  2.0437268739E+00  6.2629149596E+00  7.3268279417E-01  0.0000000000E+00  9.0000000000E+00
 111 2 58 0 0 0  1.2962853239E+00 -2.1137142323E-01  6.0364635100E-01  1.4517720334E+00  1.3498000000E-01  5.6108168461E-05  9.0000000000E+00
 113 2 59 0 0 0  6.5477503295E+00 -2.5868059894E+00  3.1565252675E+00  7.7337782834E+00  5.3204808819E-01  0.0000000000E+00  9.0000000000E+00
 211 1 59 0 0 0  3.9614229510E+00 -2.4761836476E+00  2.0357175021E+00  5.0978409927E+00  1.3957000000E-01  0.0000000000E+00  9.0000000000E+00
 -211 1 60 0 0 0  3.3056565479E+00 -1.4482370660E+00  1.6438634671E+00  3.9681888432E+00  1.3957000000E-01  0.0000000000E+00  9.0000000000E+00
 211 1 60 0 0 0  2.3996689901E+01 -8.8160629323E+00  1.2388099714E+01  2.8408600566E+01  1.3957000000E-01  0.0000000000E+00  9.0000000000E+00
 223 2 61 0 0 0  5.0131645820E+00 -1.7231225023E+00  2.5966157627E+00  5.9544464964E+00  7.8233584584E-01  0.0000000000E+00  9.0000000000E+00
 -211 1 61 0 0 0  5.9223841766E-01 -3.4602150028E-01  5.0118163715E-02  7.0176123949E-01  1.3957000000E-01  0.0000000000E+00  9.0000000000E+00
 211 1 62 0 0 0  7.2580396101E+00 -2.8847288002E+00  3.4558826055E+00  8.5418618345E+00  1.3957000000E-01  0.0000000000E+00  9.0000000000E+00
 111 2 62 0 0 0  4.0206449302E+00 -1.3724470505E+00  2.0992666052E+00  4.7407105418E+00  1.3498000000E-01  7.8675384037E-06  9.0000000000E+00
 -211 1 63 0 0 0  6.1542977328E-01 -7.0360580606E-01 -7.8710084369E-02  9.4841446554E-01  1.3957000000E-01  0.0000000000E+00  9.0000000000E+00
 211 1 63 0 0 0  3.1459903094E-01 -1.3110282977E-01  4.0196508854E-01  5.4517540256E-01  1.3957000000E-01  0.0000000000E+00  9.0000000000E+00
 113 2 64 0 0 0  5.1538490490E-01 -1.4631349947E-01  3.4771397646E-01  1.1036960390E+00  9.0011704609E-01  0.0000000000E+00  9.0000000000E+00
 111 2 64 0 0 0  3.8721636583E-01 -3.1648773078E-02  1.1902307427E-01  4.2816381376E-01  1.3498000000E-01  1.1432615867E-05  9.0000000000E+00
 -323 2 65 0 0 0 -1.0163786070E+00  5.7316866089E-01 -6.1701249977E-01  1.5952527861E+00  8.9586786991E-01  0.0000000000E+00  9.0000000000E+00
 111 2 65 0 0 0  2.0913019201E-01 -3.1586980876E-03 -3.5163398556E-02  2.5139904451E-01  1.3498000000E-01  6.9258787069E-05  9.0000000000E+00
 311 2 66 0 0 0 -1.1024255150E-01  1.7663086871E-01 -9.4892860082E-01  1.0915552218E+00  4.9767000000E-01  0.0000000000E+00  9.0000000000E+00
 113 2 66 0 0 0 -5.3439931824E-01  5.9963781478E-02 -2.3848301988E-01  7.9359125627E-01  5.3266748054E-01  0.0000000000E+00  9.0000000000E+00
 130 1 67 0 0 0 -4.8360478120E-01  6.6250667951E-01  9.4143061173E-02  9.6401609408E-01  4.9767000000E-01  0.0000000000E+00  9.0000000000E+00
 311 2 68 0 0 0 -5.2841366559E-01  4.0140233706E-01 -4.3443602962E-01  9.3635192684E-01  4.9767000000E-01  0.0000000000E+00  9.0000000000E+00
 223 2 68 0 0 0 -1.0960261503E+00  1.0801164422E+00 -7.9637837654E-01  1.8935135505E+00  7.6370818789E-01  0.0000000000E+00  9.0000000000E+00
 10211 2 69 0 0 0  4.1657735595E-01 -1.3245795138E+00  1.8919162790E-02  1.7224907068E+00  1.0191019176E+00  0.0000000000E+00  9.0000000000E+00
 -211 1 69 0 0 0 -1.3402479124E-02  2.1174840043E-02 -3.4467299931E-02  1.4593073687E-01  1.3957000000E-01  0.0000000000E+00  9.0000000000E+00
 223 2 70 0 0 0  5.5733020805E-01 -5.5498195488E-01 -1.0804219319E+00  1.5549542759E+00  7.9495239983E-01  0.0000000000E+00  9.0000000000E+00
 211 1 70 0 0 0 -1.0906764597E-01 -4.8058955005E-01 -1.8895587830E-01  5.4593605474E-01  1.3957000000E-01  0.0000000000E+00  9.0000000000E+00
 211 1 71 0 0 0 -5.4655277841E-02 -2.9847283320E-01 -1.9761392209E-02  3.3457963040E-01  1.3957000000E-01  0.0000000000E+00  9.0000000000E+00
 -211 1 71 0 0 0  5.3854476476E-01 -1.6683860594E+00 -1.3593514700E+00  2.2228042448E+00  1.3957000000E-01  0.0000000000E+00  9.0000000000E+00
 211 1 73 0 0 0  5.8020697792E-01 -3.0103958336E+00 -3.2835181700E+00  4.4944515316E+00  1.3957000000E-01  0.0000000000E+00  9.0000000000E+00
 -211 1 73 0 0 0  2.8475586934E-01 -2.5250137556E+00 -2.8101813417E+00  3.7912239883E+00  1.3957000000E-01  0.0000000000E+00  9.0000000000E+00
 221 2 73 0 0 0  1.0024868087E+00 -5.1362076537E+00 -5.6352548219E+00  7.7098253725E+00  5.4745000000E-01  0.0000000000E+00  9.0000000000E+00
 -433 2 74 0 0 0 -3.2016318883E+01  4.6993389340E+00  5.7045929384E+00  3.2926176145E+01  2.1124000000E+00  0.0000000000E+00  9.0000000000E+00
 223 2 74 0 0 0 -1.7035389288E+01  4.3726054359E+00  2.1749898621E+00  1.7738968736E+01  7.8502511479E-01  0.0000000000E+00  9.0000000000E+00
 10211 2 74 0 0 0 -1.7496724090E+01  4.1694802380E+00  2.4530541174E+00  1.8179767278E+01  9.8312990691E-01  0.0000000000E+00  9.0000000000E+00
 130 1 76 0 0 0 -1.2330207923E+00  1.0311907417E-01  2.4457408410E-01  1.3559003389E+00  4.9767000000E-01  0.0000000000E+00  9.0000000000E+00
 -211 1 77 0 0 0 -3.7260261263E-01 -4.7721041578E-02  1.5633044316E-01  4.3014997048E-01  1.3957000000E-01  0.0000000000E+00  9.0000000000E+00
 111 2 77 0 0 0 -1.0580258285E+00  8.1586560001E-01  2.9957656458E-01  1.3758710148E+00  1.3498000000E-01  2.1967280937E-05  9.0000000000E+00
 -211 1 78 0 0 0 -2.3538873222E+00  1.6359927143E+00 -1.8348919093E-01  2.8758313155E+00  1.3957000000E-01  0.0000000000E+00  9.0000000000E+00
 211 1 78 0 0 0 -1.0458384491E-01  1.0899091655E-02 -1.1687598188E-01  2.1022928163E-01  1.3957000000E-01  0.0000000000E+00  9.0000000000E+00
 22 1 79 0 0 0 -1.4768983086E-01  6.2041056675E-02  2.7048828721E-02  1.6245928101E-01 -5.2683560639E-09  0.0000000000E+00  9.0000000000E+00
 22 1 79 0 0 0 -8.3819450832E-01  6.2428416797E-02 -8.1227266585E-03  8.4055536384E-01 -2.1073424255E-08  0.0000000000E+00  9.0000000000E+00
 22 1 83 0 0 0 -3.2795835000E-01  3.8505341316E-03 -6.2207335127E-02  3.3382818708E-01 -3.7252902985E-09  0.0000000000E+00  9.0000000000E+00
 22 1 83 0 0 0 -6.7777428132E-02 -6.6239034937E-02 -1.7730570905E-02  9.6414535513E-02 -1.8626451492E-09  0.0000000000E+00  9.0000000000E+00
 130 1 84 0 0 0 -4.0764315048E-01  2.1524034291E+00  9.4651291562E-01  2.4377398524E+00  4.9767000000E-01  0.0000000000E+00  9.0000000000E+00
 130 1 86 0 0 0 -1.3914814816E+00  2.6453092590E+00  5.1255009920E-01  3.0731522615E+00  4.9767000000E-01  0.0000000000E+00  9.0000000000E+00
 22 1 89 0 0 0 -7.7130258719E-01  3.6942148694E+00  2.0327313986E+00  4.2865053507E+00 -8.4293697022E-08  0.0000000000E+00  9.0000000000E+00
 22 1 89 0 0 0 -2.6408108340E-02  3.1014520120E-01  1.5704373192E-01  3.4864045627E-01  5.2683560639E-09  0.0000000000E+00  9.0000000000E+00
 22 1 90 0 0 0 -1.4683893902E-01  2.0310795620E-01  1.9507371667E-02  2.5138626342E-01  0.0000000000E+00  0.0000000000E+00  9.0000000000E+00
 22 1 90 0 0 0 -2.5648035226E-01  4.3817935368E-01 -1.4727437714E-01  5.2865211553E-01  7.4505805969E-09  0.0000000000E+00  9.0000000000E+00
 22 1 91 0 0 0 -2.2748502121E-01  3.6220714234E-01  7.5193330524E-02  4.3427812033E-01 -1.1780402288E-08  0.0000000000E+00  9.0000000000E+00
 22 1 91 0 0 0 -2.6786171589E-01  4.2715641573E-01 -5.7979239251E-02  5.0751758051E-01 -1.2904784140E-08  0.0000000000E+00  9.0000000000E+00
 22 1 92 0 0 0 -9.2738948951E-02  3.4159856646E-01  3.0260260076E-02  3.5525452369E-01  0.0000000000E+00  0.0000000000E+00  9.0000000000E+00
 22 1 92 0 0 0 -1.0457744200E-02  3.5695083437E-03  3.2785887181E-02  3.4597979736E-02 -1.6130980175E-09  0.0000000000E+00  9.0000000000E+00
 -421 2 93 0 0 0 -9.6027803423E+00  2.0826991035E+01  4.0876022758E+00  2.3370104802E+01  1.8645000000E+00  1.0849098877E-01  9.0000000000E+00
 -211 1 93 0 0 0 -6.9067583402E-01  1.4465994269E+00  3.1985104023E-01  1.6405692556E+00  1.3957000000E-01  0.0000000000E+00  9.0000000000E+00
 223 2 94 0 0 0 -2.2048167574E+00  5.8687888920E+00  1.6497322572E+00  6.5302658454E+00  7.8667369262E-01  0.0000000000E+00  9.0000000000E+00
 111 2 94 0 0 0 -6.3393822115E-01  1.2331088359E+00 -9.1949691363E-03  1.3931041660E+00  1.3498000000E-01  2.3054142235E-05  9.0000000000E+00
 211 1 95 0 0 0 -1.0145600348E+00  3.3217149055E+00  7.3542416427E-01  3.5529495442E+00  1.3957000000E-01  0.0000000000E+00  9.0000000000E+00
 111 2 95 0 0 0 -6.1088741122E-01  1.6765388237E+00  8.0067425109E-01  1.9604246258E+00  1.3498000000E-01  5.3245604215E-05  9.0000000000E+00
 22 1 96 0 0 0 -1.8547730235E+00  4.8712936621E+00  1.0721015083E+00  5.3215680542E+00  1.0323827312E-07  0.0000000000E+00  9.0000000000E+00
 22 1 96 0 0 0 -2.0945883665E+00  5.1174171206E+00  1.1106644301E+00  5.6399320819E+00  0.0000000000E+00  0.0000000000E+00  9.0000000000E+00
 310 2 102 0 0 0 -3.1060477516E-01  6.7191599123E-02  1.6544281459E-01  6.1321838781E-01  4.9767000000E-01  3.2277200031E+01  9.0000000000E+00
 310 2 104 0 0 0 -4.1593369472E-01  3.9230635021E-01  1.9156279315E-01  7.8184195554E-01  4.9767000000E-01  8.2492574762E+00  9.0000000000E+00
 -211 1 105 0 0 0 -8.1923251158E-02  3.3023584088E-01  1.6458434610E-01  4.0290808079E-01  1.3957000000E-01  0.0000000000E+00  9.0000000000E+00
 211 1 105 0 0 0 -2.7578276425E-04  1.2458144645E-02 -3.9335363774E-02  1.4554153073E-01  1.3957000000E-01  0.0000000000E+00  9.0000000000E+00
 111 2 105 0 0 0 -5.5140484881E-01  3.3597344840E-01 -7.7291007041E-02  6.6416787448E-01  1.3498000000E-01  5.5241670811E-06  9.0000000000E+00
 211 1 108 0 0 0  4.0311971879E+00 -1.7414134545E+00  1.3601995879E+00  4.5992058326E+00  1.3957000000E-01  0.0000000000E+00  9.0000000000E+00
 -211 1 108 0 0 0  1.2227076060E+00 -8.8669320150E-01  6.8352728603E-01  1.6637091270E+00  1.3957000000E-01  0.0000000000E+00  9.0000000000E+00
 22 1 109 0 0 0  7.8538850052E-01 -1.6749789467E-01  4.2633597164E-01  9.0920459864E-01  1.8250120750E-08  0.0000000000E+00  9.0000000000E+00
 22 1 109 0 0 0  5.1089682336E-01 -4.3873528554E-02  1.7731037936E-01  5.4256743475E-01  1.8250120750E-08  0.0000000000E+00  9.0000000000E+00
 211 1 110 0 0 0  1.8455091472E+00 -7.7070045979E-01  6.9066243909E-01  2.1204663640E+00  1.3957000000E-01  0.0000000000E+00  9.0000000000E+00
 -211 1 110 0 0 0  4.7022411823E+00 -1.8161055296E+00  2.4658628284E+00  5.6133119194E+00  1.3957000000E-01  0.0000000000E+00  9.0000000000E+00
 211 1 114 0 0 0  3.4283310980E+00 -1.0774979805E+00  1.6840473557E+00  3.9711397982E+00  1.3957000000E-01  0.0000000000E+00  9.0000000000E+00
 -211 1 114 0 0 0  1.2033933066E+00 -3.8533982395E-01  7.4707406124E-01  1.4745309994E+00  1.3957000000E-01  0.0000000000E+00  9.0000000000E+00
 111 2 114 0 0 0  3.8144017735E-01 -2.6028469787E-01  1.6549434573E-01  5.0877569882E-01  1.3498000000E-01  8.6945773438E-06  9.0000000000E+00
 22 1 117 0 0 0  5.2502261272E-01 -1.6312141651E-01  3.1995434682E-01  6.3610386294E-01  2.2351741791E-08  0.0000000000E+00  9.0000000000E+00
 22 1 117 0 0 0  3.4956223174E+00 -1.2093256340E+00  1.7793122584E+00  4.1046066788E+00  8.4293697022E-08  0.0000000000E+00  9.0000000000E+00
 211 1 120 0 0 0  6.3853846115E-01 -3.6892750559E-01  1.9351436543E-01  7.7509126254E-01  1.3957000000E-01  0.0000000000E+00  9.0000000000E+00
 -211 1 120 0 0 0 -1.2315355625E-01  2.2261400612E-01  1.5419961103E-01  3.2860477641E-01  1.3957000000E-01  0.0000000000E+00  9.0000000000E+00
 22 1 121 0 0 0  6.2624142270E-03 -2.0017371938E-02  3.0284247023E-02  3.6838140955E-02  1.8626451492E-09  0.0000000000E+00  9.0000000000E+00
 22 1 121 0 0 0  3.8095395160E-01 -1.1631401140E-02  8.8738827244E-02  3.9132567281E-01  9.1250603750E-09  0.0000000000E+00  9.0000000000E+00
 -321 1 122 0 0 0 -9.0820181864E-01  6.9894177536E-01 -4.5979304094E-01  1.3298122985E+00  4.9360000000E-01  0.0000000000E+00  9.0000000000E+00
 111 2 122 0 0 0 -1.0817678832E-01 -1.2577311447E-01 -1.5721945882E-01  2.6544048766E-01  1.3498000000E-01  1.4106287466E-05  9.0000000000E+00
 22 1 123 0 0 0  1.2160120521E-01 -6.7369751911E-02 -3.2722972496E-02  1.4281571871E-01  4.9280958456E-09  0.0000000000E+00  9.0000000000E+00
 22 1 123 0 0 0  8.7528986798E-02  6.4211053824E-02 -2.4404260594E-03  1.0858332580E-01  4.3682900815E-09  0.0000000000E+00  9.0000000000E+00
 310 2 124 0 0 0 -1.1024255150E-01  1.7663086871E-01 -9.4892860082E-01  1.0915552218E+00  4.9767000000E-01  1.0078906433E+01  9.0000000000E+00
 211 1 125 0 0 0 -2.1962120424E-01 -1.9551431358E-01 -1.3600713779E-01  3.5275635586E-01  1.3957000000E-01  0.0000000000E+00  9.0000000000E+00
 -211 1 125 0 0 0 -3.1477811400E-01  2.5547809506E-01 -1.0247588208E-01  4.4083490041E-01  1.3957000000E-01  0.0000000000E+00  9.0000000000E+00
 130 1 127 0 0 0 -5.2841366559E-01  4.0140233706E-01 -4.3443602962E-01  9.3635192684E-01  4.9767000000E-01  0.0000000000E+00  9.0000000000E+00
 -211 1 128 0 0 0 -9.6341015999E-01  7.2082175879E-01 -4.2656306119E-01  1.2842036343E+00  1.3957000000E-01  0.0000000000E+00  9.0000000000E+00
 211 1 128 0 0 0 -1.0362691087E-01  1.5619106268E-01 -2.2392819910E-01  3.2366310875E-01  1.3957000000E-01  0.0000000000E+00  9.0000000000E+00
 111 2 128 0 0 0 -2.8989079453E-02  2.0310362073E-01 -1.4588711625E-01  2.8564680739E-01  1.3498000000E-01  9.2830236008E-06  9.0000000000E+00
 221 2 129 0 0 0  5.5735430515E-03 -1.0534873633E+00  1.4320602040E-01  1.1958579162E+00  5.4745000000E-01  0.0000000000E+00  9.0000000000E+00
 211 1 129 0 0 0  4.1100381290E-01 -2.7109215052E-01 -1.2428685761E-01  5.2663279063E-01  1.3957000000E-01  0.0000000000E+00  9.0000000000E+00
 -211 1 131 0 0 0 -3.3009563893E-02 -1.9772314590E-01 -9.5414585938E-02  2.6223615662E-01  1.3957000000E-01  0.0000000000E+00  9.0000000000E+00
 211 1 131 0 0 0  3.2683070692E-01 -4.0074251207E-01 -6.7728380041E-01  8.6348480193E-01  1.3957000000E-01  0.0000000000E+00  9.0000000000E+00
 111 2 131 0 0 0  2.6350906503E-01  4.3483703088E-02 -3.0772354560E-01  4.2923331732E-01  1.3498000000E-01  2.2386815797E-05  9.0000000000E+00
 22 1 137 0 0 0  5.9377833907E-02 -1.6738858359E-01 -7.2995613906E-02  1.9202350045E-01  3.7252902985E-09  0.0000000000E+00  9.0000000000E+00
 22 1 137 0 0 0  9.4310897482E-01 -4.9688190701E+00 -5.5622592080E+00  7.5178018720E+00 -1.8848643662E-07  0.0000000000E+00  9.0000000000E+00
 -431 2 138 0 0 0 -2.9661877324E+01  4.2762462986E+00  5.3997262593E+00  3.0514673269E+01  1.9685000000E+00  4.4808492534E-02  9.0000000000E+00
 22 1 138 0 0 0 -2.3544415584E+00  4.2309263544E-01  3.0486667910E-01  2.4115028762E+00  7.3000483000E-08  0.0000000000E+00  9.0000000000E+00
 -211 1 139 0 0 0 -2.6693553821E+00  6.8420565050E-01  1.7240605269E-01  2.7645612962E+00  1.3957000000E-01  0.0000000000E+00  9.0000000000E+00
 211 1 139 0 0 0 -1.0412979416E+01  2.6231663551E+00  1.2863800196E+00  1.0815978707E+01  1.3957000000E-01  0.0000000000E+00  9.0000000000E+00
 111 2 139 0 0 0 -3.9530544897E+00  1.0652334303E+00  7.1620378987E-01  4.1584287331E+00  1.3498000000E-01  1.2688967394E-05  9.0000000000E+00
 221 2 140 0 0 0 -1.1537869153E+01  3.0198911584E+00  1.8089631072E+00  1.2075355739E+01  5.4745000000E-01  0.0000000000E+00  9.0000000000E+00
 211 1 140 0 0 0 -5.9588549370E+00  1.1495890796E+00  6.4409101017E-01  6.1044115381E+00  1.3957000000E-01  0.0000000000E+00  9.0000000000E+00
 22 1 143 0 0 0 -3.6141707789E-01  3.5178244602E-01  8.1586003574E-02  5.1091043197E-01 -7.4505805969E-09  0.0000000000E+00  9.0000000000E+00
 22 1 143 0 0 0 -6.9660875059E-01  4.6408315399E-01  2.1799056100E-01  8.6496058286E-01 -2.3560804577E-08  0.0000000000E+00  9.0000000000E+00
 313 2 160 0 0 0 -8.7831785932E+00  1.9178663817E+01  4.1760965317E+00  2.1522192338E+01  8.9420846109E-01  0.0000000000E+00  9.0000000000E+00
 111 2 160 0 0 0 -8.1960174912E-01  1.6483272175E+00 -8.8494255901E-02  1.8479124646E+00  1.3498000000E-01  4.3066324772E-06  9.0000000000E+00
 -211 1 162 0 0 0 -3.5440512997E-01  9.4627434420E-01  4.9817251892E-01  1.1352064896E+00  1.3957000000E-01  0.0000000000E+00  9.0000000000E+00
 211 1 162 0 0 0 -6.5008988629E-01  2.0253634712E+00  4.4570010732E-01  2.1778067916E+00  1.3957000000E-01  0.0000000000E+00  9.0000000000E+00
 111 2 162 0 0 0 -1.2003217412E+00  2.8971510766E+00  7.0585963099E-01  3.2172525642E+00  1.3498000000E-01  1.3045163955E-05  9.0000000000E+00
 22 1 163 0 0 0 -4.9086917284E-01  8.9358457024E-01  4.5931728754E-02  1.0205663392E+00  0.0000000000E+00  0.0000000000E+00  9.0000000000E+00
 22 1 163 0 0 0 -1.4306904832E-01  3.3952426564E-01 -5.5126697891E-02  3.7253782676E-01  7.4505805969E-09  0.0000000000E+00  9.0000000000E+00
 22 1 165 0 0 0 -6.9436913432E-02  3.2467716093E-01  1.2125120222E-01  3.5346654412E-01 -7.4505805969E-09  0.0000000000E+00  9.0000000000E+00
 22 1 165 0 0 0 -5.4145049779E-01  1.3518616628E+00  6.7942304887E-01  1.6069580817E+00 -4.2146848511E-08  0.0000000000E+00  9.0000000000E+00
 211 1 168 0 0 0 -9.4157290071E-02 -8.7717278839E-02  2.3760722911E-01  3.0413302436E-01  1.3957000000E-01  0.0000000000E+00  9.0000000000E+00
 -211 1 168 0 0 0 -2.1644748509E-01  1.5490887796E-01 -7.2164414522E-02  3.0908536344E-01  1.3957000000E-01  0.0000000000E+00  9.0000000000E+00
 -211 1 169 0 0 0 -1.6152679882E-01  4.1132179097E-01  7.9449426166E-02  4.7017924101E-01  1.3957000000E-01  0.0000000000E+00  9.0000000000E+00
 211 1 169 0 0 0 -2.5440689590E-01 -1.9015440758E-02  1.1211336698E-01  3.1166271452E-01  1.3957000000E-01  0.0000000000E+00  9.0000000000E+00
 22 1 172 0 0 0 -1.5805857822E-01  1.5465107975E-01 -6.6467300154E-02  2.3090554911E-01 -6.4523920699E-09  0.0000000000E+00  9.0000000000E+00
 22 1 172 0 0 0 -3.9334627059E-01  1.8132236865E-01 -1.0823706887E-02  4.3326232537E-01 -1.1780402288E-08  0.0000000000E+00  9.0000000000E+00
 22 1 181 0 0 0  2.6362360676E-02  4.9687267438E-03 -1.4395929644E-02  3.0445116130E-02  2.3514742354E-09  0.0000000000E+00  9.0000000000E+00
 22 1 181 0 0 0  3.5507781667E-01 -2.6525342461E-01  1.7989027538E-01  4.7833058269E-01  9.1250603750E-09  0.0000000000E+00  9.0000000000E+00
 22 1 189 0 0 0 -9.4723963535E-02 -6.5438524422E-02 -1.6701625467E-01  2.0285280149E-01 -3.7252902985E-09  0.0000000000E+00  9.0000000000E+00
 22 1 189 0 0 0 -1.3452824782E-02 -6.0334590049E-02  9.7967958495E-03  6.2587686169E-02  0.0000000000E+00  0.0000000000E+00  9.0000000000E+00
 211 1 192 0 0 0 -2.3737105984E-01  1.4086665083E-01 -3.7378287679E-01  4.8516168155E-01  1.3957000000E-01  0.0000000000E+00  9.0000000000E+00
 -211 1 192 0 0 0  1.2712850835E-01  3.5764217889E-02 -5.7514572403E-01  6.0639354028E-01  1.3957000000E-01  0.0000000000E+00  9.0000000000E+00
 22 1 198 0 0 0 -7.7305895746E-02  1.5016993900E-01 -7.4867434268E-02  1.8474941085E-01 -8.7365801629E-09  0.0000000000E+00  9.0000000000E+00
 22 1 198 0 0 0  4.8316816293E-02  5.2933681733E-02 -7.1019681986E-02  1.0089739654E-01 -5.4304971312E-09  0.0000000000E+00  9.0000000000E+00
 22 1 199 0 0 0 -9.1528791376E-02 -3.9673618071E-02 -3.9698973603E-02  1.0736630815E-01 -4.3682900815E-09  0.0000000000E+00  9.0000000000E+00
 -211 1 199 0 0 0  1.2348197240E-01 -4.4547488014E-01  1.3123336246E-01  5.0039748867E-01  1.3957000000E-01  0.0000000000E+00  9.0000000000E+00
 211 1 199 0 0 0 -2.6379637973E-02 -5.6833886505E-01  5.1671631547E-02  5.8809411937E-01  1.3957000000E-01  0.0000000000E+00  9.0000000000E+00
 22 1 203 0 0 0  2.4427387818E-01  3.2514962903E-03 -2.9467186288E-01  3.8276860707E-01  0.0000000000E+00  0.0000000000E+00  9.0000000000E+00
 22 1 203 0 0 0  1.9235186848E-02  4.0232206797E-02 -1.3051682719E-02  4.6464710250E-02 -9.3132257462E-10  0.0000000000E+00  9.0000000000E+00
 113 2 206 0 0 0 -1.1933231000E+01  1.8025873541E+00  2.1185295783E+00  1.2278285365E+01  7.8536657858E-01  0.0000000000E+00  9.0000000000E+00
 -211 1 206 0 0 0 -2.7147272118E+00  3.6302654187E-01  5.5112513265E-01  2.7972756034E+00  1.3957000000E-01  0.0000000000E+00  9.0000000000E+00
 333 2 206 0 0 0 -1.5013919112E+01  2.1106324026E+00  2.7300715484E+00  1.5439112301E+01  1.0199812374E+00  0.0000000000E+00  9.0000000000E+00
 22 1 210 0 0 0 -1.6583980565E+00  4.5663849943E-01  2.3401303045E-01  1.7359622494E+00  2.9802322388E-08  0.0000000000E+00  9.0000000000E+00
 22 1 210 0 0 0 -2.2946564332E+00  6.0859493089E-01  4.8219075942E-01  2.4224664837E+00  0.0000000000E+00  0.0000000000E+00  9.0000000000E+00
 111 2 211 0 0 0 -3.0470421121E+00  7.9611586336E-01  4.9441649774E-01  3.1907574922E+00  1.3498000000E-01  1.3710189209E-05  9.0000000000E+00
 111 2 211 0 0 0 -6.3800778876E+00  1.6803322597E+00  8.7114945187E-01  6.6562775876E+00  1.3498000000E-01  1.9709195854E-05  9.0000000000E+00
 111 2 211 0 0 0 -2.1107491537E+00  5.4344303530E-01  4.4339715763E-01  2.2283206596E+00  1.3498000000E-01  3.0688917668E-05  9.0000000000E+00
 321 1 215 0 0 0 -7.4050973481E+00  1.6541436208E+01  3.4356419649E+00  1.8452692357E+01  4.9360000000E-01  0.0000000000E+00  9.0000000000E+00
 -211 1 215 0 0 0 -1.3780812451E+00  2.6372276091E+00  7.4045456676E-01  3.0694999806E+00  1.3957000000E-01  0.0000000000E+00  9.0000000000E+00
 22 1 216 0 0 0 -2.5155631414E-01  3.7965489408E-01 -6.9559281941E-03  4.5548523875E-01 -1.5805068192E-08  0.0000000000E+00  9.0000000000E+00
 22 1 216 0 0 0 -5.6804543498E-01  1.2686723235E+00 -8.1538327707E-02  1.3924272259E+00 -4.4703483582E-08  0.0000000000E+00  9.0000000000E+00
 22 1 219 0 0 0 -2.3367758721E-01  7.0154081308E-01  1.8947832154E-01  7.6332611741E-01 -1.0536712128E-08  0.0000000000E+00  9.0000000000E+00
 22 1 219 0 0 0 -9.6664415395E-01  2.1956102635E+00  5.1638130945E-01  2.4539264468E+00 -5.9604644775E-08  0.0000000000E+00  9.0000000000E+00
 211 1 243 0 0 0 -8.5391472324E+00  1.3699216954E+00  1.1956523275E+00  8.7317114692E+00  1.3957000000E-01  0.0000000000E+00  9.0000000000E+00
 -211 1 243 0 0 0 -3.3940837675E+00  4.3266565873E-01  9.2287725085E-01  3.5465738957E+00  1.3957000000E-01  0.0000000000E+00  9.0000000000E+00
 -321 1 245 0 0 0 -7.0919150288E+00  8.7114935193E-01  1.2950490442E+00  7.2783894479E+00  4.9360000000E-01  0.0000000000E+00  9.0000000000E+00
 321 1 245 0 0 0 -7.9220040837E+00  1.2394830507E+00  1.4350225042E+00  8.1607228530E+00  4.9360000000E-01  0.0000000000E+00  9.0000000000E+00
 22 1 248 0 0 0 -1.8713657441E-01  7.0453461691E-02  5.7406002668E-02  2.0803662391E-01  6.9693799816E-09  0.0000000000E+00  9.0000000000E+00
 22 1 248 0 0 0 -2.8599055377E+00  7.2566240167E-01  4.3701049507E-01  2.9827208683E+00  5.9604644775E-08  0.0000000000E+00  9.0000000000E+00
 22 1 249 0 0 0 -3.6557181832E+00  1.0299570962E+00  5.1685115170E-01  3.8330434603E+00  7.3000483000E-08  0.0000000000E+00  9.0000000000E+00
 22 1 249 0 0 0 -2.7243597044E+00  6.5037516352E-01  3.5429830017E-01  2.8232341273E+00  2.9802322388E-08  0.0000000000E+00  9.0000000000E+00
 22 1 250 0 0 0 -1.7877965983E+00  4.2692428076E-01  3.3547141828E-01  1.8684277055E+00  4.7121609154E-08  0.0000000000E+00  9.0000000000E+00
 22 1 250 0 0 0 -3.2295255538E-01  1.1651875454E-01  1.0792573935E-01  3.5989295409E-01  1.2904784140E-08  0.0000000000E+00  9.0000000000E+00
<weights>1.1373095373E+07</weights>
</event>
<event>
 279 1  1.0000000000E+00  3.6005584893E+02 -1.0000000000E+00  1.1780000000E-01
 11 -9 0 0 0 0  0.0000000000E+00  0.0000000000E+00  1.8250000000E+02  1.8250000000E+02  5.1099700000E-04  0.0000000000E+00  9.0000000000E+00
 -11 -9 0 0 0 0  0.0000000000E+00  0.0000000000E+00 -1.8250000000E+02  1.8250000000E+02  5.1099700000E-04  0.0000000000E+00  9.0000000000E+00
 11 2 1 2 0 0  0.0000000000E+00  0.0000000000E+00  1.8183439352E+02  1.8183439352E+02  5.1099859771E-04  0.0000000000E+00  9.0000000000E+00
 -11 2 1 2 0 0  0.0000000000E+00  0.0000000000E+00 -1.8255781551E+02  1.8255781551E+02  5.1099859771E-04  0.0000000000E+00  9.0000000000E+00
 11 -1 3 0 0 0  0.0000000000E+00  0.0000000000E+00  1.7753309272E+02  1.7753309272E+02  5.1099700000E-04  0.0000000000E+00  9.0000000000E+00
 -11 -1 4 0 0 0  0.0000000000E+00  0.0000000000E+00 -1.8255781551E+02  1.8255781551E+02  5.1099700000E-04  0.0000000000E+00  9.0000000000E+00
 22 1 3 0 0 0  0.0000000000E+00  0.0000000000E+00  4.3013008045E+00  4.3013008045E+00  0.0000000000E+00  0.0000000000E+00  9.0000000000E+00
 22 1 4 0 0 0  0.0000000000E+00  0.0000000000E+00 -3.0306909561E-13  3.0306909561E-13  0.0000000000E+00  0.0000000000E+00  9.0000000000E+00
 6 2 5 6 501 0  2.8240451334E+01  4.0587238534E+01 -1.2486863332E+00  1.8002782074E+02  1.7310000000E+02  0.0000000000E+00  9.0000000000E+00
 -6 2 5 6 0 501 -2.8240451334E+01 -4.0587238534E+01 -3.7760364597E+00  1.8006308749E+02  1.7310000000E+02  0.0000000000E+00  9.0000000000E+00
 24 2 9 0 0 0  4.9083942213E+00 -1.1829751517E+01  6.1120303742E+01  9.5146393691E+01  7.1785161057E+01  0.0000000000E+00  9.0000000000E+00
 5 2 9 0 1000 0  2.3332057113E+01  5.2416990051E+01 -6.2368990076E+01  8.4881427051E+01  4.8000000000E+00  0.0000000000E+00  9.0000000000E+00
 -3 2 11 0 1001 1000 -1.0904617737E+01  1.0608525429E+01  6.5555498703E+01  6.7299516417E+01  5.0000000000E-01  0.0000000000E+00  9.0000000000E+00
 4 2 11 0 1002 1001  1.5813011958E+01 -2.2438276947E+01 -4.4351949608E+00  2.7846877273E+01  1.5000000000E+00  0.0000000000E+00  9.0000000000E+00
 -24 2 10 0 0 0 -4.1949848971E+01 -8.9831896716E+01  7.2561861451E+00  1.2754895721E+02  7.9915735320E+01  0.0000000000E+00  9.0000000000E+00
 -5 2 10 0 1003 1002  1.3709397637E+01  4.9244658182E+01 -1.1032222605E+01  5.2514130275E+01  4.8000000000E+00  0.0000000000E+00  9.0000000000E+00
 1 2 15 0 1004 1003  1.7764152567E+01 -1.3813661661E+01  2.1068493516E+01  3.0828115154E+01  3.3000000000E-01  0.0000000000E+00  9.0000000000E+00
 -2 2 15 0 1005 1004 -5.7492817252E+01 -7.0767079375E+01 -1.4411947526E+01  9.2310436519E+01  3.3000000000E-01  0.0000000000E+00  9.0000000000E+00
 5 2 12 0 1006 1005  2.3332057113E+01  5.2416990051E+01 -6.2368990076E+01  8.4881427051E+01  4.8000000000E+00  0.0000000000E+00  9.0000000000E+00
 21 2 16 0 1007 1006 -1.1658022299E+00 -2.2541838335E+00 -7.1835203888E-01  2.6375119423E+00 -5.1619136559E-08  0.0000000000E+00  9.0000000000E+00
 21 2 16 0 1008 1007  7.7724736414E-01 -1.0373388104E-01 -3.8630795390E-01  8.7413272355E-01 -1.8250120750E-08  0.0000000000E+00  9.0000000000E+00
 21 2 16 0 1009 1008 -2.6291284351E-01  8.2640640694E+00 -1.0213532488E+01  1.3140780950E+01 -2.9200193200E-07  0.0000000000E+00  9.0000000000E+00
 -5 2 16 0 0 1009  1.2139681060E+01  3.8087356147E+01  8.8561002991E-01  4.0272110196E+01  4.8000000000E+00  0.0000000000E+00  9.0000000000E+00
 4 2 14 0 1010 0  6.9101922290E+00 -1.1244889164E+01 -2.9764195769E+00  1.3612764688E+01  1.5000000000E+00  0.0000000000E+00  9.0000000000E+00
 21 2 14 0 1011 1010  8.2920582577E+00 -6.8369527947E+00 -1.2975001053E+00  1.0825232570E+01 -2.6656007499E-07  0.0000000000E+00  9.0000000000E+00
 21 2 14 0 1012 1011 -2.5035857590E-01 -3.2220720195E+00  1.2049105733E+00  3.4490922002E+00 -4.2146848511E-08  0.0000000000E+00  9.0000000000E+00
 21 2 13 0 1013 1012  8.0869617716E-01  2.9955622451E+00  2.7882694823E+01  2.8054804460E+01 -3.3717478809E-07  0.0000000000E+00  9.0000000000E+00
 21 2 13 0 1014 1013  9.0528273033E-01  7.8810710333E-01  2.4378114342E+00  2.7172733055E+00 -5.1619136559E-08  0.0000000000E+00  9.0000000000E+00
 21 2 13 0 1015 1014 -5.2145759671E-01  1.1519966815E+00  2.8773736919E+00  3.1429753010E+00 -5.9604644775E-08  0.0000000000E+00  9.0000000000E+00
 21 2 13 0 1016 1015 -4.1032078263E+00  2.4419711022E+00  1.0327714057E+01  1.1378102433E+01 -2.3841857910E-07  0.0000000000E+00  9.0000000000E+00
 -3 2 13 0 0 1016 -7.1328111739E+00  2.0965253284E+00  2.0663718845E+01  2.1966148733E+01  5.0000000000E-01  0.0000000000E+00  9.0000000000E+00
 1 2 17 0 1017 0  7.9074426997E+00 -9.6243016578E+00  1.5078412131E+01  1.9560732217E+01  3.3000000000E-01  0.0000000000E+00  9.0000000000E+00
 21 2 17 0 1018 1017  4.8032669984E+00 -2.8734848321E+00  5.6610134473E+00  7.9608644122E+00 -1.4600096600E-07  0.0000000000E+00  9.0000000000E+00
 21 2 17 0 1019 1018  3.9284606391E+00 -2.3928325398E+00 -9.6259671196E-02  4.6008386715E+00 -5.9604644775E-08  0.0000000000E+00  9.0000000000E+00
 21 2 18 0 1020 1019 -8.8603990121E-01 -1.6743542339E-01  5.3592200095E-02  9.0331248826E-01 -1.8250120750E-08  0.0000000000E+00  9.0000000000E+00
 21 2 18 0 1021 1020 -6.8555103348E+00 -6.9234895666E+00 -1.3586281407E+00  9.8376115065E+00 -1.1920928955E-07  0.0000000000E+00  9.0000000000E+00
 -2 2 18 0 0 1021 -4.8626284786E+01 -6.2599197016E+01 -1.2681583976E+01  8.0275192378E+01  3.3000000000E-01  0.0000000000E+00  9.0000000000E+00
 92 2 19 23 0 0  3.4820270463E+01  9.6410492553E+01 -7.2801572526E+01  1.4180596286E+02  6.5585271454E+01  0.0000000000E+00  9.0000000000E+00
 -521 2 38 0 0 0  2.1620517785E+01  4.9602736343E+01 -5.8894441723E+01  8.0151732939E+01  5.2789000000E+00  1.5053343102E+00  9.0000000000E+00
 213 2 38 0 0 0  1.2938909003E+00  1.7702285270E+00 -2.0487503540E+00  3.0643578591E+00  6.2052266310E-01  0.0000000000E+00  9.0000000000E+00
 2112 1 38 0 0 0  3.7024274644E-02  5.0717517444E-01 -9.3629632155E-01  1.4205773619E+00  9.3957000000E-01  0.0000000000E+00  9.0000000000E+00
 -2112 1 38 0 0 0 -8.4747836518E-02 -7.5734144539E-01 -1.4919168383E+00  1.9207696108E+00  9.3957000000E-01  0.0000000000E+00  9.0000000000E+00
 -10213 2 38 0 0 0 -2.2077075791E-01 -2.9052939647E-01 -7.1501237320E-01  1.5245223990E+00  1.2960628046E+00  0.0000000000E+00  9.0000000000E+00
 211 1 38 0 0 0  9.1180799160E-02  5.2396379214E-01 -7.9445061114E-01  9.6616952552E-01  1.3957000000E-01  0.0000000000E+00  9.0000000000E+00
 331 2 38 0 0 0 -3.9098318086E-01 -4.0077795015E-01 -5.5073253893E-01  1.2385851875E+00  9.5775577476E-01  0.0000000000E+00  9.0000000000E+00
 10113 2 38 0 0 0  5.3106448351E-01  3.3494988770E+00 -2.9751610918E+00  4.6808749685E+00  1.2481324996E+00  0.0000000000E+00  9.0000000000E+00
 223 2 38 0 0 0  3.8742753946E-01  1.5539376613E+00 -5.2285510951E-01  1.8560402804E+00  7.7890031669E-01  0.0000000000E+00  9.0000000000E+00
 2112 1 38 0 0 0  1.6789298754E-02  1.6190128697E+00 -1.6068631429E+00  2.4670398249E+00  9.3957000000E-01  0.0000000000E+00  9.0000000000E+00
 -2212 1 38 0 0 0  3.0000498514E-01  3.9996240132E+00 -3.4278536502E+00  5.3588736203E+00  9.3827000000E-01  0.0000000000E+00  9.0000000000E+00
 20523 2 38 0 0 0  1.1238872172E+01  3.4932964087E+01  1.1627612284E+00  3.7156419286E+01  5.7116768883E+00  0.0000000000E+00  9.0000000000E+00
 92 2 24 31 0 0  4.9083942213E+00 -1.1829751517E+01  6.1120303742E+01  9.5146393691E+01  7.1785161057E+01  0.0000000000E+00  9.0000000000E+00
 423 2 51 0 0 0  6.7635633912E+00 -9.4903318373E+00 -2.2005671877E+00  1.2028363520E+01  2.0067000000E+00  0.0000000000E+00  9.0000000000E+00
 10223 2 51 0 0 0  5.8344586779E+00 -7.6666373005E+00 -2.3396553127E+00  9.9817994127E+00  1.1593519619E+00  0.0000000000E+00  9.0000000000E+00
 10111 2 51 0 0 0  3.2519469424E-01 -3.2337256289E-01 -1.8426963686E-01  1.1352475994E+00  1.0220129203E+00  0.0000000000E+00  9.0000000000E+00
 223 2 51 0 0 0  2.2236184086E+00 -2.3735915615E+00  1.4804876616E+00  3.6578270305E+00  7.8066583194E-01  0.0000000000E+00  9.0000000000E+00
 213 2 51 0 0 0  5.1855214725E-02 -9.3366390252E-01  9.2498855527E-01  1.6075875152E+00  9.2429245671E-01  0.0000000000E+00  9.0000000000E+00
 315 2 51 0 0 0  1.5227763104E-02  3.9054799094E-01  8.2027557944E+00  8.3452289245E+00  1.4848850330E+00  0.0000000000E+00  9.0000000000E+00
 -321 1 51 0 0 0  1.9047769469E-01  1.1847469173E+00  4.8722356441E+00  5.0420460274E+00  4.9360000000E-01  0.0000000000E+00  9.0000000000E+00
 211 1 51 0 0 0  3.4035098124E-01 -3.7487437974E-01  3.5538982728E+00  3.5924980597E+00  1.3957000000E-01  0.0000000000E+00  9.0000000000E+00
 10313 2 51 0 0 0  1.8535443648E-01  2.1507701929E+00  1.0658524303E+01  1.0951097967E+01  1.2892779650E+00  0.0000000000E+00  9.0000000000E+00
 3122 2 51 0 0 0 -1.9711883980E+00  1.1784886760E+00  6.5366677304E+00  7.0176339417E+00  1.1156800000E+00  5.8387389051E+01  9.0000000000E+00
 -2112 1 51 0 0 0  3.1365257311E-01  2.3602507960E-01  2.1736102077E+00  2.4003039172E+00  9.3957000000E-01  0.0000000000E+00  9.0000000000E+00
 -213 2 51 0 0 0 -4.7541312984E+00  2.1923084819E+00  1.3892136475E+01  1.4868798272E+01  8.2566659478E-01  0.0000000000E+00  9.0000000000E+00
 325 2 51 0 0 0 -4.6100399176E+00  1.9998326886E+00  1.3549491235E+01  1.4517961503E+01  1.3894943893E+00  0.0000000000E+00  9.0000000000E+00
 92 2 32 37 0 0 -3.9728664685E+01 -8.4580741036E+01  6.6565459908E+00  1.2313855167E+02  7.9915735320E+01  0.0000000000E+00  9.0000000000E+00
 -213 2 65 0 0 0  6.0353336847E+00 -6.2848571879E+00  1.0621833367E+01  1.3765033048E+01  8.5329255191E-01  0.0000000000E+00  9.0000000000E+00
 323 2 65 0 0 0  2.3958767776E+00 -2.0188648629E+00  2.5728094278E+00  4.1411088931E+00  8.4462633458E-01  0.0000000000E+00  9.0000000000E+00
 20333 2 65 0 0 0  1.4890470840E+00 -2.4580629478E+00  1.5886344328E+00  3.5775390604E+00  1.4197505745E+00  0.0000000000E+00  9.0000000000E+00
 -323 2 65 0 0 0  2.3082715525E+00 -8.1035287751E-01  3.2190167460E+00  4.1402311209E+00  8.9143456117E-01  0.0000000000E+00  9.0000000000E+00
 213 2 65 0 0 0  1.6697133125E+00 -1.7147133647E+00  1.7200327787E+00  3.0582525751E+00  8.1621785361E-01  0.0000000000E+00  9.0000000000E+00
 113 2 65 0 0 0  9.3641257417E-02 -7.0334319990E-01  1.0560410482E+00  1.4786823787E+00  7.5353735123E-01  0.0000000000E+00  9.0000000000E+00
 -211 1 65 0 0 0  3.0880964881E-01 -6.0113151788E-01 -5.5405947418E-01  8.8497694140E-01  1.3957000000E-01  0.0000000000E+00  9.0000000000E+00
 223 2 65 0 0 0  4.0231735914E-01 -5.3918281251E-01  2.6619718477E-01  1.0660904674E+00  7.8301378063E-01  0.0000000000E+00  9.0000000000E+00
 10111 2 65 0 0 0  1.4190355286E-01 -3.5306056823E-01  5.4283878390E-03  1.0475442742E+00  9.7597702634E-01  0.0000000000E+00  9.0000000000E+00
 10323 2 65 0 0 0 -8.4850476978E-01 -1.5337036340E+00 -5.2365434929E-01  2.2426376698E+00  1.2973059236E+00  0.0000000000E+00  9.0000000000E+00
 -311 2 65 0 0 0 -4.9857350222E+00 -5.7317462765E+00 -6.6503664748E-01  7.6420166357E+00  4.9767000000E-01  0.0000000000E+00  9.0000000000E+00
 10221 2 65 0 0 0 -1.7965600817E+00 -2.8765631000E+00 -7.1961514187E-01  3.6083360913E+00  1.0000000000E+00  0.0000000000E+00  9.0000000000E+00
 10223 2 65 0 0 0 -4.4494716736E+00 -6.1402018565E+00 -1.4570039646E+00  7.8341829947E+00  1.3235126098E+00  0.0000000000E+00  9.0000000000E+00
 -10213 2 65 0 0 0 -1.3461640873E+01 -1.5753102666E+01 -2.6800648148E+00  2.0918960363E+01  1.0218300580E+00  0.0000000000E+00  9.0000000000E+00
 10113 2 65 0 0 0 -2.9031666494E+01 -3.7061854164E+01 -7.7940129898E+00  4.7732959159E+01  1.1269685624E+00  0.0000000000E+00  9.0000000000E+00
 421 2 39 0 0 0  5.7723021432E+00  1.5133646295E+01 -1.7378605180E+01  2.3829372641E+01  1.8645000000E+00  2.6343316641E-02  9.0000000000E+00
 213 2 39 0 0 0  4.1904482834E+00  1.1041889663E+01 -1.2409189281E+01  1.7153453529E+01  8.7738544646E-01  0.0000000000E+00  9.0000000000E+00
 -211 1 39 0 0 0  1.0604423975E+00  2.7542036021E+00 -3.4305580999E+00  4.5275141327E+00  1.3957000000E-01  0.0000000000E+00  9.0000000000E+00
 -20213 2 39 0 0 0  1.0597324961E+01  2.0672996784E+01 -2.5676089162E+01  3.4641392636E+01  1.0432817307E+00  0.0000000000E+00  9.0000000000E+00
 211 1 40 0 0 0  8.8264625220E-02  8.9165946615E-02 -2.9156596630E-01  3.4674444149E-01  1.3957000000E-01  0.0000000000E+00  9.0000000000E+00
 111 2 40 0 0 0  1.2056262751E+00  1.6810625804E+00 -1.7571843877E+00  2.7176134176E+00  1.3498000000E-01  2.0882775638E-05  9.0000000000E+00
 223 2 43 0 0 0 -4.0269571572E-01 -2.2507259043E-01 -1.6671517663E-01  9.2661698475E-01  7.8613203464E-01  0.0000000000E+00  9.0000000000E+00
 -211 1 43 0 0 0  1.8192495782E-01 -6.5456806039E-02 -5.4829719657E-01  5.9790541426E-01  1.3957000000E-01  0.0000000000E+00  9.0000000000E+00
 22 1 45 0 0 0 -4.6996326924E-02 -1.3819568756E-01  1.4284642473E-01  2.0423467840E-01  3.7252902985E-09  0.0000000000E+00  9.0000000000E+00
 113 2 45 0 0 0 -3.4398685394E-01 -2.6258226260E-01 -6.9357896366E-01  1.0343505090E+00  6.3368193632E-01  0.0000000000E+00  9.0000000000E+00
 223 2 46 0 0 0  5.9249922635E-01  2.4253823320E+00 -1.9183448118E+00  3.2691930404E+00  8.7979629947E-01  0.0000000000E+00  9.0000000000E+00
 111 2 46 0 0 0 -6.1434742845E-02  9.2411654498E-01 -1.0568162800E+00  1.4116819282E+00  1.3498000000E-01  1.4910832763E-05  9.0000000000E+00
 -211 1 47 0 0 0 -1.2086443069E-01  2.3836499124E-01 -2.0252578494E-01  3.6321145098E-01  1.3957000000E-01  0.0000000000E+00  9.0000000000E+00
 211 1 47 0 0 0  4.4783144167E-01  8.6757740876E-01 -2.1407260467E-01  1.0092325923E+00  1.3957000000E-01  0.0000000000E+00  9.0000000000E+00
 111 2 47 0 0 0  6.0460528474E-02  4.4799526132E-01 -1.0625671990E-01  4.8359623715E-01  1.3498000000E-01  6.1697694759E-06  9.0000000000E+00
 523 2 50 0 0 0  9.9672246422E+00  3.1962231533E+01  9.3134201299E-01  3.3913871861E+01  5.3248000000E+00  0.0000000000E+00  9.0000000000E+00
 111 2 50 0 0 0  1.2716475301E+00  2.9707325541E+00  2.3141921542E-01  3.2425474249E+00  1.3498000000E-01  1.0077564953E-05  9.0000000000E+00
 421 2 52 0 0 0  6.3884489647E+00 -9.0050725795E+00 -2.0883152107E+00  1.1390392136E+01  1.8645000000E+00  1.1423597440E-01  9.0000000000E+00
 111 2 52 0 0 0  3.7511442642E-01 -4.8525925781E-01 -1.1225197696E-01  6.3797138410E-01  1.3498000000E-01  5.5307101336E-07  9.0000000000E+00
 213 2 53 0 0 0  3.9688391545E+00 -5.2845549438E+00 -1.7723173452E+00  6.9002081493E+00  8.9081902975E-01  0.0000000000E+00  9.0000000000E+00
 -211 1 53 0 0 0  1.8656195233E+00 -2.3820823568E+00 -5.6733796753E-01  3.0815912634E+00  1.3957000000E-01  0.0000000000E+00  9.0000000000E+00
 221 2 54 0 0 0  1.3044756978E-01  1.5725990785E-02 -3.7833264093E-01  6.7830742657E-01  5.4745000000E-01  0.0000000000E+00  9.0000000000E+00
 111 2 54 0 0 0  1.9474712447E-01 -3.3909855368E-01  1.9406300407E-01  4.5694017283E-01  1.3498000000E-01  1.8769948529E-06  9.0000000000E+00
 -211 1 55 0 0 0  4.4318197254E-01 -7.7057352461E-01  5.2012950265E-01  1.0393306991E+00  1.3957000000E-01  0.0000000000E+00  9.0000000000E+00
 211 1 55 0 0 0  2.6142442731E-01 -2.1761179100E-01  7.1232285538E-02  3.7450159703E-01  1.3957000000E-01  0.0000000000E+00  9.0000000000E+00
 111 2 55 0 0 0  1.5190120088E+00 -1.3854062459E+00  8.8912587338E-01  2.2439947344E+00  1.3498000000E-01  2.7283533567E-06  9.0000000000E+00
 211 1 56 0 0 0  4.0300174887E-02 -8.4728714363E-01  2.2390787622E-01  8.8833221815E-01  1.3957000000E-01  0.0000000000E+00  9.0000000000E+00
 111 2 56 0 0 0  1.1555039838E-02 -8.6376758882E-02  7.0108067905E-01  7.1925529707E-01  1.3498000000E-01  4.5593006464E-05  9.0000000000E+00
 321 1 57 0 0 0  3.5966314320E-01  2.0964734919E-01  7.5159826627E+00  7.5436692620E+00  4.9360000000E-01  0.0000000000E+00  9.0000000000E+00
 -211 1 57 0 0 0 -3.4443538010E-01  1.8090064175E-01  6.8677313172E-01  8.0155966253E-01  1.3957000000E-01  0.0000000000E+00  9.0000000000E+00
 311 2 60 0 0 0  1.0312322807E-01  9.2720030852E-01  4.6639435989E+00  4.7822986247E+00  4.9767000000E-01  0.0000000000E+00  9.0000000000E+00
 223 2 60 0 0 0  8.2231208412E-02  1.2235698844E+00  5.9945807045E+00  6.1687993426E+00  7.8434831079E-01  0.0000000000E+00  9.0000000000E+00
 2212 1 61 0 0 0 -1.5807843904E+00  8.7920974998E-01  5.0571828323E+00  5.4522782271E+00  9.3827000000E-01  0.0000000000E+00  9.0000000000E+00
 -211 1 61 0 0 0 -3.9040400760E-01  2.9927892599E-01  1.4794848980E+00  1.5653557146E+00  1.3957000000E-01  0.0000000000E+00  9.0000000000E+00
 -211 1 63 0 0 0 -1.5663305511E+00  5.3792793192E-01  5.3242424490E+00  5.5776155565E+00  1.3957000000E-01  0.0000000000E+00  9.0000000000E+00
 111 2 63 0 0 0 -3.1878007473E+00  1.6543805500E+00  8.5678940259E+00  9.2911827152E+00  1.3498000000E-01  3.2306664975E-05  9.0000000000E+00
 311 2 64 0 0 0 -1.4619681041E+00  4.1555133191E-01  4.3618562592E+00  4.6458044623E+00  4.9767000000E-01  0.0000000000E+00  9.0000000000E+00
 213 2 64 0 0 0 -3.1480718135E+00  1.5842813567E+00  9.1876349758E+00  9.8721570410E+00  7.9154572377E-01  0.0000000000E+00  9.0000000000E+00
 -211 1 66 0 0 0  8.4136655775E-01 -9.9275913368E-01  1.2106229884E+00  1.7828505790E+00  1.3957000000E-01  0.0000000000E+00  9.0000000000E+00
 111 2 66 0 0 0  5.1939671269E+00 -5.2920980542E+00  9.4112103783E+00  1.1982182469E+01  1.3498000000E-01  1.4438230336E-05  9.0000000000E+00
 311 2 67 0 0 0  2.2239585637E+00 -1.6483999734E+00  2.2014016400E+00  3.5717025037E+00  4.9767000000E-01  0.0000000000E+00  9.0000000000E+00
 211 1 67 0 0 0  1.7191821387E-01 -3.7046488947E-01  3.7140778773E-01  5.6940638939E-01  1.3957000000E-01  0.0000000000E+00  9.0000000000E+00
 -323 2 68 0 0 0  1.0209200009E+00 -1.6740175730E+00  9.7224074566E-01  2.3702891885E+00  9.1016827379E-01  0.0000000000E+00  9.0000000000E+00
 321 1 68 0 0 0  4.6812708317E-01 -7.8404537481E-01  6.1639368709E-01  1.2072498719E+00  4.9360000000E-01  0.0000000000E+00  9.0000000000E+00
 -311 2 69 0 0 0  1.3738678268E+00 -3.7931207959E-01  2.3131478320E+00  2.7621945588E+00  4.9767000000E-01  0.0000000000E+00  9.0000000000E+00
 -211 1 69 0 0 0  9.3440372562E-01 -4.3104079793E-01  9.0586891407E-01  1.3780365620E+00  1.3957000000E-01  0.0000000000E+00  9.0000000000E+00
 211 1 70 0 0 0  1.6257791099E+00 -1.4446064540E+00  1.2951087527E+00  2.5351197186E+00  1.3957000000E-01  0.0000000000E+00  9.0000000000E+00
 111 2 70 0 0 0  4.3934202553E-02 -2.7010691066E-01  4.2492402596E-01  5.2313285653E-01  1.3498000000E-01  2.8679156774E-06  9.0000000000E+00
 -211 1 71 0 0 0  1.9712569161E-01  8.1558403532E-03  7.2331499371E-02  2.5226312994E-01  1.3957000000E-01  0.0000000000E+00  9.0000000000E+00
 211 1 71 0 0 0 -1.0348443420E-01 -7.1149904026E-01  9.8370954886E-01  1.2264192488E+00  1.3957000000E-01  0.0000000000E+00  9.0000000000E+00
 -211 1 73 0 0 0 -8.8982611695E-02 -1.4784827704E-01  2.2010593328E-01  3.1257547084E-01  1.3957000000E-01  0.0000000000E+00  9.0000000000E+00
 211 1 73 0 0 0  2.1670963117E-01 -3.6145307980E-01  1.0951051744E-02  4.4408456805E-01  1.3957000000E-01  0.0000000000E+00  9.0000000000E+00
 111 2 73 0 0 0  2.7459033966E-01 -2.9881455667E-02  3.5140199743E-02  3.0943042847E-01  1.3498000000E-01  1.6601737736E-05  9.0000000000E+00
 221 2 74 0 0 0  5.9708615658E-02 -1.9438247397E-01 -3.0962981218E-01  6.6100059611E-01  5.4745000000E-01  0.0000000000E+00  9.0000000000E+00
 111 2 74 0 0 0  8.2194937200E-02 -1.5867809426E-01  3.1505820002E-01  3.8654367812E-01  1.3498000000E-01  4.2899655871E-05  9.0000000000E+00
 321 1 75 0 0 0 -3.5870817001E-01 -5.4613194415E-01 -1.1669880275E-01  8.2715852303E-01  4.9360000000E-01  0.0000000000E+00  9.0000000000E+00
 223 2 75 0 0 0 -4.8979659977E-01 -9.8757168984E-01 -4.0695554653E-01  1.4154791468E+00  7.8915768166E-01  0.0000000000E+00  9.0000000000E+00
 130 1 76 0 0 0 -4.9857350222E+00 -5.7317462765E+00 -6.6503664748E-01  7.6420166357E+00  4.9767000000E-01  0.0000000000E+00  9.0000000000E+00
 -211 1 77 0 0 0 -1.1858118104E+00 -1.1294228689E+00 -8.1216524552E-02  1.6455459809E+00  1.3957000000E-01  0.0000000000E+00  9.0000000000E+00
 211 1 77 0 0 0 -6.1074827127E-01 -1.7471402311E+00 -6.3839861731E-01  1.9627901104E+00  1.3957000000E-01  0.0000000000E+00  9.0000000000E+00
 213 2 78 0 0 0 -2.2974322825E+00 -3.6105639673E+00 -5.2392690335E-01  4.3815819493E+00  7.8063674244E-01  0.0000000000E+00  9.0000000000E+00
 -211 1 78 0 0 0 -2.1520393911E+00 -2.5296378892E+00 -9.3307706125E-01  3.4526010454E+00  1.3957000000E-01  0.0000000000E+00  9.0000000000E+00
 223 2 79 0 0 0 -1.1999664351E+01 -1.3924170069E+01 -2.2515620719E+00  1.8534539221E+01  7.6495473326E-01  0.0000000000E+00  9.0000000000E+00
 -211 1 79 0 0 0 -1.4619765217E+00 -1.8289325976E+00 -4.2850274297E-01  2.3844211420E+00  1.3957000000E-01  0.0000000000E+00  9.0000000000E+00
 223 2 80 0 0 0 -2.5025275810E+01 -3.2306243757E+01 -6.7508340114E+00  4.1426340522E+01  7.8109803927E-01  0.0000000000E+00  9.0000000000E+00
 111 2 80 0 0 0 -4.0063906840E+00 -4.7556104064E+00 -1.0431789784E+00  6.3066186369E+00  1.3498000000E-01  4.7855420063E-05  9.0000000000E+00
 -323 2 81 0 0 0  4.5887059753E+00  1.1984335930E+01 -1.3556398583E+01  1.8695532792E+01  1.0327020975E+00  0.0000000000E+00  9.0000000000E+00
 213 2 81 0 0 0  1.1835961679E+00  3.1493103651E+00 -3.8222065973E+00  5.1338398495E+00  6.5421148159E-01  0.0000000000E+00  9.0000000000E+00
 211 1 82 0 0 0  2.4342889989E+00  5.9322718484E+00 -6.1844940410E+00  8.9098293217E+00  1.3957000000E-01  0.0000000000E+00  9.0000000000E+00
 111 2 82 0 0 0  1.7561592845E+00  5.1096178143E+00 -6.2246952396E+00  8.2436242071E+00  1.3498000000E-01  3.0454942100E-05  9.0000000000E+00
 113 2 84 0 0 0  7.5652078544E+00  1.4715676241E+01 -1.8495537689E+01  2.4830011416E+01  8.1305315153E-01  0.0000000000E+00  9.0000000000E+00
 -211 1 84 0 0 0  3.0321171068E+00  5.9573205427E+00 -7.1805514736E+00  9.8113812201E+00  1.3957000000E-01  0.0000000000E+00  9.0000000000E+00
 22 1 86 0 0 0  8.2593227326E-01  1.2208029082E+00 -1.3102025408E+00  1.9720939527E+00  3.6500241500E-08  0.0000000000E+00  9.0000000000E+00
 22 1 86 0 0 0  3.7969400182E-01  4.6025967225E-01 -4.4698184697E-01  7.4551946484E-01  1.0536712128E-08  0.0000000000E+00  9.0000000000E+00
 -211 1 87 0 0 0 -3.2377393628E-01 -1.1188710717E-01 -2.4389102018E-01  4.4306986039E-01  1.3957000000E-01  0.0000000000E+00  9.0000000000E+00
 211 1 87 0 0 0  6.5143030951E-02  8.5238997230E-02 -3.9307669987E-02  1.8037233421E-01  1.3957000000E-01  0.0000000000E+00  9.0000000000E+00
 111 2 87 0 0 0 -1.4406481039E-01 -1.9842448049E-01  1.1648351353E-01  3.0317479014E-01  1.3498000000E-01  5.7806912311E-05  9.0000000000E+00
 211 1 90 0 0 0 -3.8942835370E-01 -1.9531493735E-01 -1.7264244115E-01  4.8896581149E-01  1.3957000000E-01  0.0000000000E+00  9.0000000000E+00
 -211 1 90 0 0 0  4.5441499757E-02 -6.7267325247E-02 -5.2093652251E-01  5.4538469756E-01  1.3957000000E-01  0.0000000000E+00  9.0000000000E+00
 211 1 91 0 0 0  3.7890981924E-01  1.3993917651E+00 -1.2351203446E+00  1.9096785106E+00  1.3957000000E-01  0.0000000000E+00  9.0000000000E+00
 -211 1 91 0 0 0  3.2019189533E-01  6.2530224497E-01 -5.5162534695E-01  9.0404427751E-01  1.3957000000E-01  0.0000000000E+00  9.0000000000E+00
 111 2 91 0 0 0 -1.0660248822E-01  4.0068832189E-01 -1.3159912024E-01  4.5547025220E-01  1.3498000000E-01  1.3278820677E-05  9.0000000000E+00
 22 1 92 0 0 0 -9.0235841826E-03  8.1302771903E-01 -9.2198277969E-01  1.2292874940E+00  2.5809568280E-08  0.0000000000E+00  9.0000000000E+00
 22 1 92 0 0 0 -5.2411158662E-02  1.1108882596E-01 -1.3483350030E-01  1.8239443415E-01  5.8902011442E-09  0.0000000000E+00  9.0000000000E+00
 22 1 95 0 0 0 -3.5109465736E-02  1.5944461286E-01 -6.9406839280E-02  1.7740509715E-01 -3.7252902985E-09  0.0000000000E+00  9.0000000000E+00
 22 1 95 0 0 0  9.5569994210E-02  2.8855064845E-01 -3.6849880618E-02  3.0619114001E-01 -5.2683560639E-09  0.0000000000E+00  9.0000000000E+00
 521 2 96 0 0 0  9.8823307690E+00  3.1826613336E+01  9.2609747585E-01  3.3753788226E+01  5.2789000000E+00  2.1812201353E-01  9.0000000000E+00
 22 1 96 0 0 0  8.4893873270E-02  1.3561819666E-01  5.2445371422E-03  1.6008363487E-01 -4.1650011716E-09  0.0000000000E+00  9.0000000000E+00
 22 1 97 0 0 0  7.2322378487E-01  1.5247591583E+00  1.3927554815E-01  1.6933224182E+00  2.1073424255E-08  0.0000000000E+00  9.0000000000E+00
 22 1 97 0 0 0  5.4842374521E-01  1.4459733958E+00  9.2143667266E-02  1.5492250066E+00  2.9802322388E-08  0.0000000000E+00  9.0000000000E+00
 -323 2 98 0 0 0  2.4816923042E+00 -2.7906792485E+00 -7.0427585290E-01  3.9193495843E+00  9.5844109162E-01  0.0000000000E+00  9.0000000000E+00
 211 1 98 0 0 0  3.9067566605E+00 -6.2143933310E+00 -1.3840393578E+00  7.4710425515E+00  1.3957000000E-01  0.0000000000E+00  9.0000000000E+00
 22 1 99 0 0 0  3.2461556820E-02 -6.7737351646E-02  2.7616595831E-02  8.0029855957E-02  2.6341780319E-09  0.0000000000E+00  9.0000000000E+00
 22 1 99 0 0 0  3.4265286960E-01 -4.1752190616E-01 -1.3986857279E-01  5.5794152814E-01  1.2904784140E-08  0.0000000000E+00  9.0000000000E+00
 211 1 100 0 0 0  2.8145583454E+00 -3.9232565986E+00 -1.6564715685E+00  5.1065701660E+00  1.3957000000E-01  0.0000000000E+00  9.0000000000E+00
 111 2 100 0 0 0  1.1542808091E+00 -1.3612983451E+00 -1.1584577670E-01  1.7936379833E+00  1.3498000000E-01  2.0046949673E-05  9.0000000000E+00
 22 1 102 0 0 0  2.2175196429E-01 -1.2780053406E-01 -4.3010456987E-01  5.0049660458E-01 -1.4901161194E-08  0.0000000000E+00  9.0000000000E+00
 22 1 102 0 0 0 -9.1304394514E-02  1.4352652484E-01  5.1771928941E-02  1.7781082199E-01 -7.9025340958E-09  0.0000000000E+00  9.0000000000E+00
 22 1 103 0 0 0  2.1380205433E-01 -3.2795260669E-01  1.8119720524E-01  4.3138921852E-01 -1.1780402288E-08  0.0000000000E+00  9.0000000000E+00
 22 1 103 0 0 0 -1.9054929863E-02 -1.1145946987E-02  1.2865798835E-02  2.5550954306E-02 -2.6341780319E-09  0.0000000000E+00  9.0000000000E+00
 22 1 106 0 0 0  1.1914312130E+00 -1.0240895713E+00  6.4111208045E-01  1.6968478085E+00  2.1073424255E-08  0.0000000000E+00  9.0000000000E+00
 22 1 106 0 0 0  3.2758079575E-01 -3.6131667459E-01  2.4801379293E-01  5.4714692594E-01  1.0536712128E-08  0.0000000000E+00  9.0000000000E+00
 22 1 108 0 0 0  3.9170840118E-02 -1.0638454852E-01  6.3343653055E-01  6.4350125495E-01 -1.0536712128E-08  0.0000000000E+00  9.0000000000E+00
 22 1 108 0 0 0 -2.7615800280E-02  2.0007789641E-02  6.7644148500E-02  7.5754042121E-02 -9.3132257462E-10  0.0000000000E+00  9.0000000000E+00
 310 2 111 0 0 0  1.0312322807E-01  9.2720030852E-01  4.6639435989E+00  4.7822986247E+00  4.9767000000E-01  1.8297872730E+01  9.0000000000E+00
 22 1 112 0 0 0  1.9504075887E-01  1.2599496947E+00  5.1712763990E+00  5.3261255829E+00 -5.9604644775E-08  0.0000000000E+00  9.0000000000E+00
 111 2 112 0 0 0 -1.1280955046E-01 -3.6379810299E-02  8.2330430559E-01  8.4267375969E-01  1.3498000000E-01  7.0795695949E-06  9.0000000000E+00
 22 1 116 0 0 0 -2.7834452513E+00  1.4449593933E+00  7.5932680782E+00  8.2154242266E+00 -1.6858739404E-07  0.0000000000E+00  9.0000000000E+00
 22 1 116 0 0 0 -4.0435549594E-01  2.0942115668E-01  9.7462594767E-01  1.0757584886E+00 -3.3320009373E-08  0.0000000000E+00  9.0000000000E+00
 130 1 117 0 0 0 -1.4619681041E+00  4.1555133191E-01  4.3618562592E+00  4.6458044623E+00  4.9767000000E-01  0.0000000000E+00  9.0000000000E+00
 211 1 118 0 0 0 -2.2226611782E+00  9.5795717018E-01  7.0679311073E+00  7.4721505990E+00  1.3957000000E-01  0.0000000000E+00  9.0000000000E+00
 111 2 118 0 0 0 -9.2541063528E-01  6.2632418654E-01  2.1197038685E+00  2.4000064419E+00  1.3498000000E-01  6.8387947238E-06  9.0000000000E+00
 22 1 120 0 0 0  4.3956174424E+00 -4.5024920844E+00  8.0585230543E+00  1.0224171433E+01  1.1920928955E-07  0.0000000000E+00  9.0000000000E+00
 22 1 120 0 0 0  7.9834968451E-01 -7.8960596978E-01  1.3526873240E+00  1.7580110360E+00 -2.9802322388E-08  0.0000000000E+00  9.0000000000E+00
 130 1 121 0 0 0  2.2239585637E+00 -1.6483999734E+00  2.2014016400E+00  3.5717025037E+00  4.9767000000E-01  0.0000000000E+00  9.0000000000E+00
 -311 2 123 0 0 0  3.3271740877E-01 -6.4535019077E-01  6.1753870055E-01  1.0752707652E+00  4.9767000000E-01  0.0000000000E+00  9.0000000000E+00
 -211 1 123 0 0 0  6.8820259210E-01 -1.0286673822E+00  3.5470204512E-01  1.2950184233E+00  1.3957000000E-01  0.0000000000E+00  9.0000000000E+00
 310 2 125 0 0 0  1.3738678268E+00 -3.7931207959E-01  2.3131478320E+00  2.7621945588E+00  4.9767000000E-01  5.3759555051E+01  9.0000000000E+00
 22 1 128 0 0 0  2.3914118844E-02 -1.4553053743E-01  3.4119127986E-01  3.7170218167E-01  0.0000000000E+00  0.0000000000E+00  9.0000000000E+00
 22 1 128 0 0 0  2.0020083710E-02 -1.2457637323E-01  8.3732746107E-02  1.5143067487E-01  1.8626451492E-09  0.0000000000E+00  9.0000000000E+00
 22 1 133 0 0 0  2.8899257402E-01 -3.2379141769E-02  4.1010779960E-02  2.9367839678E-01  7.4505805969E-09  0.0000000000E+00  9.0000000000E+00
 22 1 133 0 0 0 -1.4402234361E-02  2.4976861015E-03 -5.8705802167E-03  1.5752031696E-02  9.8781676197E-10  0.0000000000E+00  9.0000000000E+00
 111 2 134 0 0 0  4.7666576568E-02  2.2229995661E-02 -1.2067217349E-03  1.4487005145E-01  1.3498000000E-01  4.9650281246E-05  9.0000000000E+00
 111 2 134 0 0 0  4.1803395515E-02 -2.3505962761E-01 -1.9826199782E-01  3.3841981707E-01  1.3498000000E-01  9.0276026965E-05  9.0000000000E+00
 111 2 134 0 0 0 -2.9761356425E-02  1.8447157977E-02 -1.1016109263E-01  1.7771072760E-01  1.3498000000E-01  3.0745579883E-05  9.0000000000E+00
 22 1 135 0 0 0  5.8818982730E-02 -9.2267905608E-03  1.5630961915E-01  1.6726477045E-01 -4.1650011716E-09  0.0000000000E+00  9.0000000000E+00
 22 1 135 0 0 0  2.3375954470E-02 -1.4945130370E-01  1.5874858087E-01  2.1927890768E-01 -5.2683560639E-09  0.0000000000E+00  9.0000000000E+00
 -211 1 137 0 0 0 -1.1398441857E-01 -5.7226445298E-02  7.3675428758E-03  1.8921252418E-01  1.3957000000E-01  0.0000000000E+00  9.0000000000E+00
 211 1 137 0 0 0 -4.5485493557E-01 -7.2896987106E-01 -4.2977024468E-01  9.7081014284E-01  1.3957000000E-01  0.0000000000E+00  9.0000000000E+00
 111 2 137 0 0 0  7.9042754382E-02 -2.0137537348E-01  1.5447155272E-02  2.5545647980E-01  1.3498000000E-01  1.5847426094E-05  9.0000000000E+00
 211 1 141 0 0 0 -2.1389340435E+00 -3.3946459431E+00 -3.3856603753E-01  4.0289907754E+00  1.3957000000E-01  0.0000000000E+00  9.0000000000E+00
 111 2 141 0 0 0 -1.5849823897E-01 -2.1591802421E-01 -1.8536086581E-01  3.5259117390E-01  1.3498000000E-01  1.0644076937E-05  9.0000000000E+00
 211 1 143 0 0 0 -2.8156664774E+00 -3.4060826001E+00 -4.9558141024E-01  4.4490962127E+00  1.3957000000E-01  0.0000000000E+00  9.0000000000E+00
 -211 1 143 0 0 0 -4.9494690876E+00 -5.4738935951E+00 -1.1522953315E+00  7.4704765347E+00  1.3957000000E-01  0.0000000000E+00  9.0000000000E+00
 111 2 143 0 0 0 -4.2345287860E+00 -5.0441938736E+00 -6.0368533015E-01  6.6149664740E+00  1.3498000000E-01  1.3938438048E-07  9.0000000000E+00
 211 1 145 0 0 0 -4.2796431460E+00 -5.6058959269E+00 -9.8173495699E-01  7.1221273444E+00  1.3957000000E-01  0.0000000000E+00  9.0000000000E+00
 -211 1 145 0 0 0 -1.1194220271E+01 -1.4186500892E+01 -3.2043257578E+00  1.8353597968E+01  1.3957000000E-01  0.0000000000E+00  9.0000000000E+00
 111 2 145 0 0 0 -9.5514123928E+00 -1.2513846939E+01 -2.5647732966E+00  1.5950615210E+01  1.3498000000E-01  2.9995570075E-05  9.0000000000E+00
 22 1 146 0 0 0 -1.4659344456E+00 -1.8123233874E+00 -3.4453644222E-01  2.3563075392E+00  0.0000000000E+00  0.0000000000E+00  9.0000000000E+00
 22 1 146 0 0 0 -2.5404562383E+00 -2.9432870190E+00 -6.9864253619E-01  3.9503110977E+00 -4.2146848511E-08  0.0000000000E+00  9.0000000000E+00
 -311 2 147 0 0 0  2.1328741126E+00  6.5888272957E+00 -7.1840897666E+00  9.9910268900E+00  4.9767000000E-01  0.0000000000E+00  9.0000000000E+00
 -211 1 147 0 0 0  2.4558318627E+00  5.3955086341E+00 -6.3723088162E+00  8.7045059017E+00  1.3957000000E-01  0.0000000000E+00  9.0000000000E+00
 211 1 148 0 0 0  1.0290659727E+00  2.0646322332E+00 -2.3777207724E+00  3.3158285376E+00  1.3957000000E-01  0.0000000000E+00  9.0000000000E+00
 111 2 148 0 0 0  1.5453019521E-01  1.0846781319E+00 -1.4444858250E+00  1.8180113118E+00  1.3498000000E-01  7.6478944730E-05  9.0000000000E+00
 22 1 150 0 0 0  9.5829363593E-01  2.8464488964E+00 -3.3617829366E+00  4.5080131461E+00  1.5769906706E-07  0.0000000000E+00  9.0000000000E+00
 22 1 150 0 0 0  7.9786564856E-01  2.2631689180E+00 -2.8629123030E+00  3.7356110610E+00  1.3328003749E-07  0.0000000000E+00  9.0000000000E+00
 -211 1 151 0 0 0  4.2850078941E-01  7.6697961012E-01 -8.2962981582E-01  1.2164029205E+00  1.3957000000E-01  0.0000000000E+00  9.0000000000E+00
 211 1 151 0 0 0  7.1367070650E+00  1.3948696631E+01 -1.7665907873E+01  2.3613608496E+01  1.3957000000E-01  0.0000000000E+00  9.0000000000E+00
 22 1 157 0 0 0 -7.6171536210E-02 -1.6868446657E-01  1.3214395391E-01  2.2741718656E-01  9.4976639628E-09  0.0000000000E+00  9.0000000000E+00
 22 1 157 0 0 0 -6.7893274182E-02 -2.9740013929E-02 -1.5660440374E-02  7.5757603581E-02  4.1650011716E-09  0.0000000000E+00  9.0000000000E+00
 22 1 162 0 0 0 -9.1719663505E-02  4.0579207467E-01 -1.3823679647E-01  4.3839379151E-01  0.0000000000E+00  0.0000000000E+00  9.0000000000E+00
 22 1 162 0 0 0 -1.4882824712E-02 -5.1037527815E-03  6.6376762318E-03  1.7076460688E-02  1.3170890160E-09  0.0000000000E+00  9.0000000000E+00
 -423 2 167 0 0 0  1.7606505139E+00  1.1472063100E+01  1.1735292362E+00  1.1836897303E+01  2.0067000000E+00  0.0000000000E+00  9.0000000000E+00
 211 1 167 0 0 0  8.1216802551E+00  2.0354550236E+01 -2.4743176033E-01  2.1916890923E+01  1.3957000000E-01  0.0000000000E+00  9.0000000000E+00
 -311 2 171 0 0 0  1.4245506405E+00 -2.0606795785E+00 -3.3927477126E-01  2.5765340385E+00  4.9767000000E-01  0.0000000000E+00  9.0000000000E+00
 -211 1 171 0 0 0  1.0571416637E+00 -7.2999967002E-01 -3.6500108163E-01  1.3428155457E+00  1.3957000000E-01  0.0000000000E+00  9.0000000000E+00
 22 1 176 0 0 0  6.3399662586E-02 -6.2047261474E-02 -3.4556324941E-02  9.5202518170E-02  3.4846899908E-09  0.0000000000E+00  9.0000000000E+00
 22 1 176 0 0 0  1.0908811465E+00 -1.2992510836E+00 -8.1289451759E-02  1.6984354651E+00  0.0000000000E+00  0.0000000000E+00  9.0000000000E+00
 211 1 185 0 0 0  1.8913765318E-01  2.7655242234E-01  2.1464658312E+00  2.1769358382E+00  1.3957000000E-01  0.0000000000E+00  9.0000000000E+00
 -211 1 185 0 0 0 -8.6014425110E-02  6.5064788618E-01  2.5174777677E+00  2.6053627864E+00  1.3957000000E-01  0.0000000000E+00  9.0000000000E+00
 22 1 187 0 0 0 -6.8724884970E-02  3.7059528927E-02  5.6898695025E-01  5.7431930844E-01  1.2904784140E-08  0.0000000000E+00  9.0000000000E+00
 22 1 187 0 0 0 -4.4084665488E-02 -7.3439339226E-02  2.5431735534E-01  2.6835445124E-01 -3.7252902985E-09  0.0000000000E+00  9.0000000000E+00
 22 1 192 0 0 0 -6.8515775010E-01  3.9019341071E-01  1.5067078482E+00  1.7005471414E+00  2.1073424255E-08  0.0000000000E+00  9.0000000000E+00
 22 1 192 0 0 0 -2.4025288518E-01  2.3613077583E-01  6.1299602040E-01  6.9945930057E-01  7.4505805969E-09  0.0000000000E+00  9.0000000000E+00
 130 1 196 0 0 0  3.3271740877E-01 -6.4535019077E-01  6.1753870055E-01  1.0752707652E+00  4.9767000000E-01  0.0000000000E+00  9.0000000000E+00
 211 1 198 0 0 0  1.2662532338E+00 -3.4911541451E-01  1.9222166123E+00  2.3323111530E+00  1.3957000000E-01  0.0000000000E+00  9.0000000000E+00
 -211 1 198 0 0 0  1.0761459303E-01 -3.0196665073E-02  3.9093121963E-01  4.2988340581E-01  1.3957000000E-01  0.0000000000E+00  9.0000000000E+00
 22 1 203 0 0 0  3.0194315984E-02  3.9388574802E-02 -6.1948615097E-02  7.9377499677E-02 -2.4640479228E-09  0.0000000000E+00  9.0000000000E+00
 22 1 203 0 0 0  1.7472260584E-02 -1.7158579141E-02  6.0741893362E-02  6.5492551769E-02 -2.4640479228E-09  0.0000000000E+00  9.0000000000E+00
 22 1 204 0 0 0 -1.5388300366E-02 -1.4827553528E-01 -4.9755600580E-02  1.5715614509E-01 -2.6341780319E-09  0.0000000000E+00  9.0000000000E+00
 22 1 204 0 0 0  5.7191695881E-02 -8.6784092324E-02 -1.4850639724E-01  1.8126367198E-01 -3.7252902985E-09  0.0000000000E+00  9.0000000000E+00
 22 1 205 0 0 0 -6.7418338503E-02  2.6015743963E-02 -1.1813246171E-01  1.3848223644E-01 -2.6341780319E-09  0.0000000000E+00  9.0000000000E+00
 22 1 205 0 0 0  3.7656982078E-02 -7.5685859861E-03  7.9713690833E-03  3.9228491152E-02 -1.6130980175E-09  0.0000000000E+00  9.0000000000E+00
 22 1 210 0 0 0 -3.3564063537E-02 -6.7960045545E-02  2.7068895254E-02  8.0485024954E-02  2.7939677238E-09  0.0000000000E+00  9.0000000000E+00
 22 1 210 0 0 0  1.1260681792E-01 -1.3341532794E-01 -1.1621739982E-02  1.7497145484E-01  5.2683560639E-09  0.0000000000E+00  9.0000000000E+00
 22 1 212 0 0 0 -8.4355322258E-02 -1.9895714551E-02 -3.0018511488E-02  9.1721158315E-02 -2.9451005721E-09  0.0000000000E+00  9.0000000000E+00
 22 1 212 0 0 0 -7.4142916710E-02 -1.9602230966E-01 -1.5534235433E-01  2.6087001558E-01 -5.2683560639E-09  0.0000000000E+00  9.0000000000E+00
 22 1 215 0 0 0 -3.0313929333E+00 -3.5623393750E+00 -3.7583428114E-01  4.6926385271E+00  1.0323827312E-07  0.0000000000E+00  9.0000000000E+00
 22 1 215 0 0 0 -1.2031358527E+00 -1.4818544985E+00 -2.2785104901E-01  1.9223279469E+00  5.1619136559E-08  0.0000000000E+00  9.0000000000E+00
 22 1 218 0 0 0 -5.4698035236E+00 -7.2661706412E+00 -1.4535143164E+00  9.2102491954E+00  0.0000000000E+00  0.0000000000E+00  9.0000000000E+00
 22 1 218 0 0 0 -4.0816088692E+00 -5.2476762974E+00 -1.1112589802E+00  6.7403660142E+00  8.4293697022E-08  0.0000000000E+00  9.0000000000E+00
 310 2 221 0 0 0  2.1328741126E+00  6.5888272957E+00 -7.1840897666E+00  9.9910268900E+00  4.9767000000E-01  3.9411855926E+01  9.0000000000E+00
 22 1 224 0 0 0  8.8901962550E-02  7.3016156951E-01 -8.6427720506E-01  1.1349072930E+00  0.0000000000E+00  0.0000000000E+00  9.0000000000E+00
 22 1 224 0 0 0  6.5628232664E-02  3.5451656237E-01 -5.8020861991E-01  6.8310401883E-01 -7.4505805969E-09  0.0000000000E+00  9.0000000000E+00
 -421 2 233 0 0 0  1.6385465000E+00  1.0800340886E+01  1.1352736606E+00  1.1139901455E+01  1.8645000000E+00  3.5840251024E-01  9.0000000000E+00
 111 2 233 0 0 0  1.2210401387E-01  6.7172221421E-01  3.8255575597E-02  6.9699584843E-01  1.3498000000E-01  1.4797082382E-05  9.0000000000E+00
 310 2 235 0 0 0  1.4245506405E+00 -2.0606795785E+00 -3.3927477126E-01  2.5765340385E+00  4.9767000000E-01  7.0220211567E+00  9.0000000000E+00
 211 1 262 0 0 0  1.2120617169E+00  4.2208873657E+00 -4.7327446880E+00  6.4578119999E+00  1.3957000000E-01  0.0000000000E+00  9.0000000000E+00
 -211 1 262 0 0 0  9.2081239562E-01  2.3679399299E+00 -2.4513450787E+00  3.5332148901E+00  1.3957000000E-01  0.0000000000E+00  9.0000000000E+00
 321 1 265 0 0 0  1.6450467624E+00  7.8762484292E+00  1.8976179350E-01  8.0635673661E+00  4.9360000000E-01  0.0000000000E+00  9.0000000000E+00
 -211 1 265 0 0 0 -6.5002623445E-03  2.9240924567E+00  9.4551186708E-01  3.0763340886E+00  1.3957000000E-01  0.0000000000E+00  9.0000000000E+00
 22 1 266 0 0 0  3.0171560349E-02  5.0124683970E-01  2.2119556706E-02  5.0264101718E-01  0.0000000000E+00  0.0000000000E+00  9.0000000000E+00
 22 1 266 0 0 0  9.1932453523E-02  1.7047537451E-01  1.6136018891E-02  1.9435483125E-01  3.7252902985E-09  0.0000000000E+00  9.0000000000E+00
 111 2 267 0 0 0  4.1571031263E-01 -6.6581917454E-01 -2.9466890064E-01  8.4922293811E-01  1.3498000000E-01  7.1325648579E-06  9.0000000000E+00
 111 2 267 0 0 0  1.0088403279E+00 -1.3948604039E+00 -4.4605870626E-02  1.7273111004E+00  1.3498000000E-01  1.9981280235E-05  9.0000000000E+00
 22 1 274 0 0 0  2.2134286558E-01 -4.2183327835E-01 -1.1819212775E-01  4.9082110583E-01  1.0536712128E-08  0.0000000000E+00  9.0000000000E+00
 22 1 274 0 0 0  1.9436744705E-01 -2.4398589619E-01 -1.7647677289E-01  3.5840183228E-01  5.2683560639E-09  0.0000000000E+00  9.0000000000E+00
 22 1 275 0 0 0  1.2538777917E-01 -2.2177276347E-01 -4.5329847893E-02  2.5876639831E-01 -3.7252902985E-09  0.0000000000E+00  9.0000000000E+00
 22 1 275 0 0 0  8.8345254871E-01 -1.1730876404E+00  7.2397726717E-04  1.4685447021E+00  2.9802322388E-08  0.0000000000E+00  9.0000000000E+00
<weights>2.3264620951E+11</weights>
</event>
<event>
 321 1  1.0000000000E+00  3.6507905963E+02 -1.0000000000E+00  1.1780000000E-01
 11 -9 0 0 0 0  0.0000000000E+00  0.0000000000E+00  1.8250000000E+02  1.8250000000E+02  5.1099700000E-04  0.0000000000E+00  9.0000000000E+00
 -11 -9 0 0 0 0  0.0000000000E+00  0.0000000000E+00 -1.8250000000E+02  1.8250000000E+02  5.1099700000E-04  0.0000000000E+00  9.0000000000E+00
 11 2 1 2 0 0  0.0000000000E+00  0.0000000000E+00  1.8290849861E+02  1.8290849861E+02  5.1099859771E-04  0.0000000000E+00  9.0000000000E+00
 -11 2 1 2 0 0  0.0000000000E+00  0.0000000000E+00 -1.8219170876E+02  1.8219170876E+02  5.1099147830E-04  0.0000000000E+00  9.0000000000E+00
 11 -1 3 0 0 0  0.0000000000E+00  0.0000000000E+00  1.8290849861E+02  1.8290849861E+02  5.1099700000E-04  0.0000000000E+00  9.0000000000E+00
 -11 -1 4 0 0 0  0.0000000000E+00  0.0000000000E+00 -1.8217130532E+02  1.8217130532E+02  5.1099700000E-04  0.0000000000E+00  9.0000000000E+00
 22 1 3 0 0 0  0.0000000000E+00  0.0000000000E+00  3.3023048276E-20  3.3023048276E-20  0.0000000000E+00  0.0000000000E+00  9.0000000000E+00
 22 1 4 0 0 0  0.0000000000E+00  0.0000000000E+00 -2.0403441873E-02  2.0403441873E-02  0.0000000000E+00  0.0000000000E+00  9.0000000000E+00
 6 2 5 6 501 0 -2.5997557947E+01 -1.5390595324E+01  4.9808827925E+01  1.8263973495E+02  1.7310000000E+02  0.0000000000E+00  9.0000000000E+00
 -6 2 5 6 0 501  2.5997557947E+01  1.5390595324E+01 -4.9071634632E+01  1.8244006898E+02  1.7310000000E+02  0.0000000000E+00  9.0000000000E+00
 24 2 9 0 0 0 -5.2440086512E+01 -2.3873135829E+01 -2.5700397207E+01  1.0204293669E+02  8.0202002615E+01  0.0000000000E+00  9.0000000000E+00
 5 2 9 0 1000 0  2.6442528565E+01  8.4825405051E+00  7.5509225132E+01  8.0596798264E+01  4.8000000000E+00  0.0000000000E+00  9.0000000000E+00
 -1 2 11 0 1001 1000 -5.7870095734E+01  1.4597199280E+01 -1.8536521872E+01  6.2495901867E+01  3.3000000000E-01  0.0000000000E+00  9.0000000000E+00
 2 2 11 0 1002 1001  5.5255840574E+00 -3.8429605731E+01 -7.0681134955E+00  3.9464335851E+01  3.3000000000E-01  0.0000000000E+00  9.0000000000E+00
 -24 2 10 0 0 0 -2.8767796673E+01  2.4014223037E+00  2.5183721870E+01  8.9140226258E+01  8.0488552823E+01  0.0000000000E+00  9.0000000000E+00
 -5 2 10 0 1003 1002  5.4765354620E+01  1.2989173020E+01 -7.4255356502E+01  9.3299842721E+01  4.8000000000E+00  0.0000000000E+00  9.0000000000E+00
 3 2 15 0 1004 1003 -8.1966546107E+00  1.8898362335E+01  4.4790718640E+01  4.9303059966E+01  5.0000000000E-01  0.0000000000E+00  9.0000000000E+00
 -4 2 15 0 1005 1004 -1.2222060315E+01 -1.5771280152E+01 -2.9047530065E+01  3.5272100006E+01  1.5000000000E+00  0.0000000000E+00  9.0000000000E+00
 5 2 12 0 1006 1005  2.4397408176E+01  9.0017771761E+00  7.0051811605E+01  7.4876977951E+01  4.8000000000E+00  0.0000000000E+00  9.0000000000E+00
 21 2 12 0 1007 1006  1.3198467614E+00 -3.4986950251E-01  4.5687397890E+00  4.7684156070E+00  8.4293697022E-08  0.0000000000E+00  9.0000000000E+00
 21 2 12 0 1008 1007  6.2969879233E-01 -2.1009654679E-01  7.9291189949E-01  1.0341036739E+00 -1.4901161194E-08  0.0000000000E+00  9.0000000000E+00
 21 2 16 0 1009 1008  3.6132640025E+00 -1.5842158781E+00 -4.2578266486E+00  5.8046967596E+00  0.0000000000E+00  0.0000000000E+00  9.0000000000E+00
 21 2 16 0 1010 1009  5.6875180018E+00 -3.6911260656E+00 -3.9413356490E+01  3.9992311042E+01  0.0000000000E+00  0.0000000000E+00  9.0000000000E+00
 21 2 16 0 1011 1010  3.1976051855E+00 -1.4869802653E+00 -6.9603538286E+00  7.8027120062E+00  0.0000000000E+00  0.0000000000E+00  9.0000000000E+00
 21 2 16 0 1012 1011  7.7918978446E+00  3.1099255600E+00 -7.8724967250E+00  1.1504847400E+01  1.6858739404E-07  0.0000000000E+00  9.0000000000E+00
 21 2 16 0 1013 1012  1.6323959658E-01  1.3513586646E+00  3.6232631457E-01  1.4085800526E+00  0.0000000000E+00  0.0000000000E+00  9.0000000000E+00
 21 2 16 0 1014 1013  3.0927141999E+00  1.0337842258E+00  7.5207132118E-01  3.3465209128E+00  4.2146848511E-08  0.0000000000E+00  9.0000000000E+00
 -5 2 16 0 0 1014  2.2870034041E+01  1.3530766900E+01 -7.4251871505E+00  2.8005240834E+01  4.8000000000E+00  0.0000000000E+00  9.0000000000E+00
 -1 2 13 0 0 1015 -3.7400899347E+01  7.5888142426E+00 -9.4552697669E+00  3.9318295994E+01  3.3000000000E-01  0.0000000000E+00  9.0000000000E+00
 21 2 13 0 1015 1016 -1.8054429798E+01  3.7545425213E+00 -6.8349611631E+00  1.9666614324E+01  0.0000000000E+00  0.0000000000E+00  9.0000000000E+00
 21 2 13 0 1016 1017 -1.4839583132E+00  2.2573840484E+00 -2.1299022304E+00  3.4401160632E+00  5.9604644775E-08  0.0000000000E+00  9.0000000000E+00
 21 2 14 0 1017 1018 -2.5620516673E+00 -1.0348817079E+01 -2.2398706904E+00  1.0893995796E+01  0.0000000000E+00  0.0000000000E+00  9.0000000000E+00
 21 2 14 0 1018 1019 -1.4047258421E-01 -3.8121906145E+00 -4.8957120997E-01  3.8460641957E+00  5.9604644775E-08  0.0000000000E+00  9.0000000000E+00
 2 2 14 0 1019 0  7.2973000326E+00 -2.3272139569E+01 -4.4550603072E+00  2.4795151346E+01  3.3000000000E-01  0.0000000000E+00  9.0000000000E+00
 -4 2 18 0 0 1020 -1.4781398584E+01 -1.0612977235E+01 -1.2462090621E+01  2.2106079086E+01  1.5000000000E+00  0.0000000000E+00  9.0000000000E+00
 21 2 18 0 1020 1021  1.8172690151E+00 -3.2279400538E+00 -4.6251879964E+00  5.9257427945E+00  0.0000000000E+00  0.0000000000E+00  9.0000000000E+00
 21 2 18 0 1021 1022  1.1422413233E+00  2.2980039141E-01 -7.4248899071E+00  7.5157510333E+00  1.1920928955E-07  0.0000000000E+00  9.0000000000E+00
 21 2 17 0 1022 1023  3.2297776266E+00 -4.2916453812E-01  6.5713629226E-01  3.3237740333E+00  4.2146848511E-08  0.0000000000E+00  9.0000000000E+00
 21 2 17 0 1023 1024  9.7535473606E-01  1.6935912795E+00  4.6711714009E+00  5.0635373544E+00  8.4293697022E-08  0.0000000000E+00  9.0000000000E+00
 21 2 17 0 1024 1025 -1.5946414552E+00  1.8712930788E-02  1.8186188235E+00  2.4188025900E+00  2.9802322388E-08  0.0000000000E+00  9.0000000000E+00
 3 2 17 0 1025 0 -1.1207317587E+01  1.5455059408E+01  3.3108430583E+01  3.8221473081E+01  5.0000000000E-01  0.0000000000E+00  9.0000000000E+00
 92 2 19 28 0 0  7.2763226602E+01  2.0705324268E+01  1.0598640086E+01  1.7854440624E+02  1.6137712424E+02  0.0000000000E+00  9.0000000000E+00
 -513 2 42 0 0 0  2.0399985248E+01  6.9613096096E+00  5.9733815893E+01  6.3726772127E+01  5.3248000000E+00  0.0000000000E+00  9.0000000000E+00
 -10213 2 42 0 0 0  4.8027691145E+00  1.8854831203E+00  1.2904360357E+01  1.3944674303E+01  1.1444594506E+00  0.0000000000E+00  9.0000000000E+00
 2114 2 42 0 0 0  1.9216558063E+00  4.4077766822E-01  1.6225513013E+00  2.8493391999E+00  1.2645217119E+00  0.0000000000E+00  9.0000000000E+00
 211 1 42 0 0 0  1.1424455135E-01 -1.7262460268E+00 -8.3114163169E-01  1.9243838908E+00  1.3957000000E-01  0.0000000000E+00  9.0000000000E+00
 -2212 1 42 0 0 0  1.4211987562E+00  3.3002642142E-01 -1.2486240338E+00  2.1373197969E+00  9.3827000000E-01  0.0000000000E+00  9.0000000000E+00
 10113 2 42 0 0 0  7.3052995153E-01 -6.1037613638E-01 -2.5771448708E+00  3.0164702670E+00  1.2454654346E+00  0.0000000000E+00  9.0000000000E+00
 20213 2 42 0 0 0  1.0503898849E+00 -5.4817964484E-01 -5.2446377309E+00  5.5139744948E+00  1.2222397338E+00  0.0000000000E+00  9.0000000000E+00
 -213 2 42 0 0 0  1.0500369761E+00 -9.6239422876E-01 -4.1842552729E+00  4.4832586383E+00  7.5022365105E-01  0.0000000000E+00  9.0000000000E+00
 225 2 42 0 0 0  1.8023747371E+00 -1.3624736501E+00 -9.9389891608E+00  1.0269984747E+01  1.2586469041E+00  0.0000000000E+00  9.0000000000E+00
 321 1 42 0 0 0  2.4138540729E+00 -1.1784938190E+00 -1.1995201405E+01  1.2302196424E+01  4.9360000000E-01  0.0000000000E+00  9.0000000000E+00
 -321 1 42 0 0 0  1.9238715497E-01  5.1758194928E-01 -1.8565580716E+00  1.9988378435E+00  4.9360000000E-01  0.0000000000E+00  9.0000000000E+00
 211 1 42 0 0 0  1.5500034538E+00 -4.2310064881E-01 -5.9627512866E+00  6.1770063588E+00  1.3957000000E-01  0.0000000000E+00  9.0000000000E+00
 -213 2 42 0 0 0  4.0151120015E-01 -1.8271524850E-01 -1.3309102850E+00  1.6104640898E+00  7.9226024250E-01  0.0000000000E+00  9.0000000000E+00
 223 2 42 0 0 0  7.1529450685E-01  5.0275475534E-02 -1.7704080676E+00  2.0748333921E+00  8.1019443590E-01  0.0000000000E+00  9.0000000000E+00
 213 2 42 0 0 0  3.3357519623E+00  2.9475062601E-01 -4.3865229886E+00  5.5746598214E+00  7.8811744672E-01  0.0000000000E+00  9.0000000000E+00
 313 2 42 0 0 0  2.1487018973E-01 -2.1900263692E-01 -1.4674260099E+00  1.7418796423E+00  8.8694658250E-01  0.0000000000E+00  9.0000000000E+00
 -315 2 42 0 0 0  2.2347276043E+00  1.1861012542E+00 -2.6745109956E+00  3.9201733193E+00  1.3468133266E+00  0.0000000000E+00  9.0000000000E+00
 313 2 42 0 0 0  1.3691133476E+00  1.0270098739E+00 -1.2752971613E+00  2.3194371222E+00  9.0784639361E-01  0.0000000000E+00  9.0000000000E+00
 -10323 2 42 0 0 0  2.9199466575E+00  1.1926862261E+00 -4.0889727818E-02  3.4070851243E+00  1.2876211235E+00  0.0000000000E+00  9.0000000000E+00
 213 2 42 0 0 0  9.8751886268E-01  4.5276100751E-01 -3.4618793738E-01  1.4333743228E+00  8.6863676373E-01  0.0000000000E+00  9.0000000000E+00
 513 2 42 0 0 0  2.3135062563E+01  1.3579543076E+01 -6.5306308286E+00  2.8118281313E+01  5.3248000000E+00  0.0000000000E+00  9.0000000000E+00
 92 2 29 34 0 0 -5.2344511677E+01 -2.3832406451E+01 -2.5604635368E+01  1.0196023772E+02  8.0202002615E+01  0.0000000000E+00  9.0000000000E+00
 211 1 64 0 0 0 -8.3489673132E-01  1.4756063623E-01 -2.6230010668E-01  8.9839179882E-01  1.3957000000E-01  0.0000000000E+00  9.0000000000E+00
 -211 1 64 0 0 0 -1.3833397764E+01  2.8318353622E+00 -3.2573926197E+00  1.4491800153E+01  1.3957000000E-01  0.0000000000E+00  9.0000000000E+00
 213 2 64 0 0 0 -2.3873789600E+01  4.7933877101E+00 -7.3609892227E+00  2.5458088556E+01  9.9785519485E-01  0.0000000000E+00  9.0000000000E+00
 -211 1 64 0 0 0 -7.7856639467E+00  1.8958163517E+00 -2.2817025403E+00  8.3328463923E+00  1.3957000000E-01  0.0000000000E+00  9.0000000000E+00
 213 2 64 0 0 0 -2.2873574732E+00  3.5771166708E-01 -7.6729213519E-01  2.5208475780E+00  6.3716045374E-01  0.0000000000E+00  9.0000000000E+00
 -215 2 64 0 0 0 -2.6102492435E+00  1.0966655571E+00 -1.6526475070E+00  3.5295529828E+00  1.3078318007E+00  0.0000000000E+00  9.0000000000E+00
 223 2 64 0 0 0 -1.8172539901E+00  2.9749832005E-01 -4.7047437263E-01  2.0540096117E+00  7.7890438101E-01  0.0000000000E+00  9.0000000000E+00
 20213 2 64 0 0 0 -3.2069263299E+00  1.2788786810E+00 -1.3612887010E+00  3.9244129301E+00  1.2759321110E+00  0.0000000000E+00  9.0000000000E+00
 -2212 1 64 0 0 0 -6.3539127477E-01 -8.9306943876E-02 -8.5140963354E-01  1.4201925078E+00  9.3827000000E-01  0.0000000000E+00  9.0000000000E+00
 2212 1 64 0 0 0 -4.2060923931E-01 -1.9483250704E+00 -6.8864723444E-01  2.3081309145E+00  9.3827000000E-01  0.0000000000E+00  9.0000000000E+00
 -213 2 64 0 0 0 -6.3001987928E-01 -8.7565091570E-01  4.8302648571E-02  1.3127747306E+00  7.4656196871E-01  0.0000000000E+00  9.0000000000E+00
 213 2 64 0 0 0 -3.8695903438E-01 -3.2793092051E+00 -6.2954220525E-01  3.4410794426E+00  7.3559376379E-01  0.0000000000E+00  9.0000000000E+00
 -2114 2 64 0 0 0 -9.9096930061E-01 -5.9826473051E+00 -2.1439461057E+00  6.5512485183E+00  1.2442922941E+00  0.0000000000E+00  9.0000000000E+00
 -211 1 64 0 0 0  2.7383478781E+00 -1.1704143415E+01 -1.3413620170E+00  1.2095629542E+01  1.3957000000E-01  0.0000000000E+00  9.0000000000E+00
 2212 1 64 0 0 0  4.2306242523E+00 -1.2652377881E+01 -2.5839436154E+00  1.3621232060E+01  9.3827000000E-01  0.0000000000E+00  9.0000000000E+00
 92 2 35 41 0 0 -2.0418714925E+01  3.1270821828E+00  1.5743188575E+01  8.4575159972E+01  8.0488552823E+01  0.0000000000E+00  9.0000000000E+00
 -423 2 80 0 0 0 -6.5262663172E+00 -4.6097924854E+00 -5.6946874127E+00  1.0014921289E+01  2.0067000000E+00  0.0000000000E+00  9.0000000000E+00
 223 2 80 0 0 0 -2.3073762719E+00 -1.6836183465E+00 -2.3341252751E+00  3.7685382594E+00  7.7148157167E-01  0.0000000000E+00  9.0000000000E+00
 -213 2 80 0 0 0 -3.3343194649E+00 -2.4080114337E+00 -2.9825768315E+00  5.1199828189E+00  6.3423509118E-01  0.0000000000E+00  9.0000000000E+00
 213 2 80 0 0 0 -1.3948535297E+00 -1.8873184215E+00 -1.9552384066E+00  3.1537611533E+00  7.8464322609E-01  0.0000000000E+00  9.0000000000E+00
 -321 1 80 0 0 0  1.9852317802E-02 -3.3356223647E-01  5.1123890741E-02  5.9825788112E-01  4.9360000000E-01  0.0000000000E+00  9.0000000000E+00
 10313 2 80 0 0 0 -9.8548075919E-02 -1.1868840463E+00 -2.6544962769E+00  3.1842874285E+00  1.2941910525E+00  0.0000000000E+00  9.0000000000E+00
 213 2 80 0 0 0  1.3815145393E+00 -1.4570340650E+00 -5.1490657752E+00  5.5776294680E+00  7.5202489021E-01  0.0000000000E+00  9.0000000000E+00
 -211 1 80 0 0 0 -1.9097932066E-01  1.6666345832E-01 -1.3368878715E-01  3.1875113485E-01  1.3957000000E-01  0.0000000000E+00  9.0000000000E+00
 213 2 80 0 0 0  1.5840546084E-01  8.7028291496E-02 -1.7349431125E+00  1.8760364462E+00  6.9052076737E-01  0.0000000000E+00  9.0000000000E+00
 -2212 1 80 0 0 0  1.7549178241E+00 -1.0412790906E+00 -5.9267883421E-01  2.3228468540E+00  9.3827000000E-01  0.0000000000E+00  9.0000000000E+00
 2112 1 80 0 0 0  8.1844016011E-02  6.3930201976E-01 -6.2055518073E-01  1.2974151350E+00  9.3957000000E-01  0.0000000000E+00  9.0000000000E+00
 10211 2 80 0 0 0  1.7896243394E+00  1.7708104912E-01  7.8020046824E-01  2.1849505545E+00  9.6497833181E-01  0.0000000000E+00  9.0000000000E+00
 -10211 2 80 0 0 0  6.0651613806E-01  5.5588477180E-01  1.7653542620E+00  2.1974645146E+00  1.0175976205E+00  0.0000000000E+00  9.0000000000E+00
 -311 2 80 0 0 0  2.8521982141E-01  4.8525313233E-02  9.5812857003E-01  1.1177615301E+00  4.9767000000E-01  0.0000000000E+00  9.0000000000E+00
 10323 2 80 0 0 0 -1.4960816465E+00  1.6168834947E+00  3.8708622577E+00  4.6379553598E+00  1.2940180729E+00  0.0000000000E+00  9.0000000000E+00
 225 2 80 0 0 0 -2.0162867132E+00  1.4048760684E+00  4.2726261247E+00  5.0818167332E+00  1.2371089003E+00  0.0000000000E+00  9.0000000000E+00
 -321 1 80 0 0 0 -9.1318980422E+00  1.3038337842E+01  2.7896948895E+01  3.2122783412E+01  4.9360000000E-01  0.0000000000E+00  9.0000000000E+00
 -511 2 43 0 0 0  2.0391770153E+01  6.9502297444E+00  5.9626003586E+01  6.3618081076E+01  5.2792000000E+00  1.3225474917E-01  9.0000000000E+00
 22 1 43 0 0 0  8.2150952288E-03  1.1079865163E-02  1.0781230701E-01  1.0869105181E-01 -3.2261960349E-09  0.0000000000E+00  9.0000000000E+00
 223 2 44 0 0 0  4.0376593168E+00  1.6381654897E+00  1.0188633354E+01  1.1108971224E+01  7.8403641846E-01  0.0000000000E+00  9.0000000000E+00
 -211 1 44 0 0 0  7.6510979774E-01  2.4731763063E-01  2.7157270031E+00  2.8357030792E+00  1.3957000000E-01  0.0000000000E+00  9.0000000000E+00
 2112 1 45 0 0 0  1.1618771318E+00  3.8780191169E-01  8.4058189623E-01  1.7577595118E+00  9.3957000000E-01  0.0000000000E+00  9.0000000000E+00
 22 1 45 0 0 0  7.5977867444E-01  5.2975756532E-02  7.8196940508E-01  1.0915796881E+00 -1.4901161194E-08  0.0000000000E+00  9.0000000000E+00
 223 2 48 0 0 0  5.3062877342E-01 -3.8112491661E-02 -1.7185982282E+00  1.9568627463E+00  7.6987822452E-01  0.0000000000E+00  9.0000000000E+00
 111 2 48 0 0 0  1.9990117811E-01 -5.7226364472E-01 -8.5854664257E-01  1.0596075207E+00  1.3498000000E-01  3.7788572818E-05  9.0000000000E+00
 213 2 49 0 0 0  1.2245319828E+00 -4.1286634373E-01 -4.0387260746E+00  4.2806547134E+00  5.8545646728E-01  0.0000000000E+00  9.0000000000E+00
 111 2 49 0 0 0 -1.7414209797E-01 -1.3531330111E-01 -1.2059116564E+00  1.2333197814E+00  1.3498000000E-01  1.6413689679E-05  9.0000000000E+00
 -211 1 50 0 0 0  1.0252288122E+00 -6.6557548797E-01 -3.6979554686E+00  3.8972348249E+00  1.3957000000E-01  0.0000000000E+00  9.0000000000E+00
 111 2 50 0 0 0  2.4808163922E-02 -2.9681874078E-01 -4.8629980432E-01  5.8602381348E-01  1.3498000000E-01  3.0798265508E-06  9.0000000000E+00
 111 2 51 0 0 0  1.9081082313E+00 -1.2589173156E+00 -8.0186694689E+00  8.3392463378E+00  1.3498000000E-01  2.1852401467E-05  9.0000000000E+00
 111 2 51 0 0 0 -1.0573349422E-01 -1.0355633448E-01 -1.9203196919E+00  1.9307384094E+00  1.3498000000E-01  1.2661348111E-05  9.0000000000E+00
 -211 1 55 0 0 0  6.3009951856E-02 -1.2261285221E-02  5.8191173061E-02  1.6427595889E-01  1.3957000000E-01  0.0000000000E+00  9.0000000000E+00
 111 2 55 0 0 0  3.3850124829E-01 -1.7045396328E-01 -1.3891014581E+00  1.4461881309E+00  1.3498000000E-01  4.6511269430E-06  9.0000000000E+00
 211 1 56 0 0 0  4.7453777667E-01  1.2616475041E-01 -1.2296266593E+00  1.3313771636E+00  1.3957000000E-01  0.0000000000E+00  9.0000000000E+00
 -211 1 56 0 0 0  2.2577248433E-01 -8.7336995190E-02 -1.2538235403E-01  3.0627028098E-01  1.3957000000E-01  0.0000000000E+00  9.0000000000E+00
 111 2 56 0 0 0  1.4984245848E-02  1.1447720315E-02 -4.1539905434E-01  4.3718594748E-01  1.3498000000E-01  3.6663751937E-05  9.0000000000E+00
 211 1 57 0 0 0  1.4814345569E+00  4.9366655242E-01 -1.8917176963E+00  2.4569148619E+00  1.3957000000E-01  0.0000000000E+00  9.0000000000E+00
 111 2 57 0 0 0  1.8543174054E+00 -1.9891592640E-01 -2.4948052923E+00  3.1177449595E+00  1.3498000000E-01  1.7355637835E-05  9.0000000000E+00
 321 1 58 0 0 0  3.0273183352E-01  9.2004983889E-02 -9.0039169316E-01  1.0744569052E+00  4.9360000000E-01  0.0000000000E+00  9.0000000000E+00
 -211 1 58 0 0 0 -8.7861643792E-02 -3.1100762081E-01 -5.6703431678E-01  6.6742273707E-01  1.3957000000E-01  0.0000000000E+00  9.0000000000E+00
 -313 2 59 0 0 0  2.2429151574E+00  1.1938242376E+00 -2.5936083955E+00  3.7624028797E+00  9.8640063188E-01  0.0000000000E+00  9.0000000000E+00
 111 2 59 0 0 0 -8.1875530686E-03 -7.7229833385E-03 -8.0902600102E-02  1.5777043956E-01  1.3498000000E-01  1.0124829564E-04  9.0000000000E+00
 321 1 60 0 0 0  1.1397214846E+00  9.9049130083E-01 -1.2923866273E+00  2.0479116763E+00  4.9360000000E-01  0.0000000000E+00  9.0000000000E+00
 -211 1 60 0 0 0  2.2939186302E-01  3.6518573029E-02  1.7089466013E-02  2.7152544585E-01  1.3957000000E-01  0.0000000000E+00  9.0000000000E+00
 -311 2 61 0 0 0  2.3090106389E+00  1.1772840018E+00 -7.2170505273E-04  2.6391672363E+00  4.9767000000E-01  0.0000000000E+00  9.0000000000E+00
 -213 2 61 0 0 0  6.1093601867E-01  1.5402224255E-02 -4.0168022765E-02  7.6791788800E-01  4.6325410439E-01  0.0000000000E+00  9.0000000000E+00
 211 1 62 0 0 0  3.5442337074E-01  5.4503088520E-01  5.3379940005E-02  6.6708604726E-01  1.3957000000E-01  0.0000000000E+00  9.0000000000E+00
 111 2 62 0 0 0  6.3309549194E-01 -9.2269877689E-02 -3.9956787738E-01  7.6628827558E-01  1.3498000000E-01  8.7500364962E-05  9.0000000000E+00
 511 2 63 0 0 0  2.2990455772E+01  1.3481490603E+01 -6.4438204114E+00  2.7923187848E+01  5.2792000000E+00  1.0223818980E-01  9.0000000000E+00
 22 1 63 0 0 0  1.4460679124E-01  9.8052472815E-02 -8.6810417214E-02  1.9509346487E-01 -4.5625301875E-09  0.0000000000E+00  9.0000000000E+00
 211 1 67 0 0 0 -1.7914493612E+00  5.1542874721E-01 -3.9276393610E-01  1.9101572976E+00  1.3957000000E-01  0.0000000000E+00  9.0000000000E+00
 111 2 67 0 0 0 -2.2082340239E+01  4.2779589629E+00 -6.9682252866E+00  2.3547931259E+01  1.3498000000E-01  4.9599492824E-05  9.0000000000E+00
 211 1 69 0 0 0 -1.1867840515E+00 -4.9547057688E-02 -2.0821859663E-01  1.2139794334E+00  1.3957000000E-01  0.0000000000E+00  9.0000000000E+00
 111 2 69 0 0 0 -1.1005734217E+00  4.0725872477E-01 -5.5907353856E-01  1.3068681446E+00  1.3498000000E-01  1.0441750189E-06  9.0000000000E+00
 -213 2 70 0 0 0 -1.0398298565E+00  5.9872089481E-01 -1.1239334015E+00  1.7940633852E+00  7.1813947026E-01  0.0000000000E+00  9.0000000000E+00
 111 2 70 0 0 0 -1.5704193870E+00  4.9794466229E-01 -5.2871410557E-01  1.7354895977E+00  1.3498000000E-01  1.2470050940E-05  9.0000000000E+00
 211 1 71 0 0 0 -1.3805961307E+00  1.5962216365E-01 -4.4075458903E-01  1.4646737875E+00  1.3957000000E-01  0.0000000000E+00  9.0000000000E+00
 -211 1 71 0 0 0 -3.1842217473E-01  1.9689760614E-01 -2.6088686282E-02  4.0040198940E-01  1.3957000000E-01  0.0000000000E+00  9.0000000000E+00
 111 2 71 0 0 0 -1.1823568466E-01 -5.9021449733E-02 -3.6310973218E-03  1.8893383477E-01  1.3498000000E-01  3.0929942352E-06  9.0000000000E+00
 213 2 72 0 0 0 -1.5660037266E+00  5.4984175294E-01 -3.5830848054E-01  1.8632698599E+00  7.6726525968E-01  0.0000000000E+00  9.0000000000E+00
 111 2 72 0 0 0 -1.6409226033E+00  7.2903692810E-01 -1.0029802204E+00  2.0611430701E+00  1.3498000000E-01  1.8900686311E-05  9.0000000000E+00
 -211 1 75 0 0 0 -3.5677556083E-01 -8.9711547114E-01  1.5790508524E-01  9.8818964283E-01  1.3957000000E-01  0.0000000000E+00  9.0000000000E+00
 111 2 75 0 0 0 -2.7324431845E-01  2.1464555444E-02 -1.0960243666E-01  3.2458508781E-01  1.3498000000E-01  3.4344560196E-05  9.0000000000E+00
 211 1 76 0 0 0 -3.9936790432E-01 -2.0370219452E+00 -6.8453301878E-01  2.1902096627E+00  1.3957000000E-01  0.0000000000E+00  9.0000000000E+00
 111 2 76 0 0 0  1.2408869941E-02 -1.2422872599E+00  5.4990813524E-02  1.2508697799E+00  1.3498000000E-01  4.1453012228E-08  9.0000000000E+00
 -2112 1 77 0 0 0 -6.5150501506E-01 -4.0905609088E+00 -1.6917998985E+00  4.5718842959E+00  9.3957000000E-01  0.0000000000E+00  9.0000000000E+00
 111 2 77 0 0 0 -3.3946428554E-01 -1.8920863963E+00 -4.5214620725E-01  1.9793642225E+00  1.3498000000E-01  2.0537453249E-05  9.0000000000E+00
 -421 2 81 0 0 0 -6.1697184899E+00 -4.3336222796E+00 -5.3366351069E+00  9.4234676643E+00  1.8645000000E+00  2.5883819451E-01  9.0000000000E+00
 111 2 81 0 0 0 -3.5654782729E-01 -2.7617020580E-01 -3.5805230581E-01  5.9145362440E-01  1.3498000000E-01  2.3823258774E-05  9.0000000000E+00
 211 1 82 0 0 0 -4.5109727214E-01 -3.5065804112E-01 -7.0907361297E-01  9.2125728450E-01  1.3957000000E-01  0.0000000000E+00  9.0000000000E+00
 -211 1 82 0 0 0 -7.2089876521E-01 -4.3577757285E-01 -3.8438422311E-01  9.3639101798E-01  1.3957000000E-01  0.0000000000E+00  9.0000000000E+00
 111 2 82 0 0 0 -1.1353802346E+00 -8.9718273257E-01 -1.2406674391E+00  1.9108899569E+00  1.3498000000E-01  1.0802603224E-05  9.0000000000E+00
 -211 1 83 0 0 0 -3.0237106193E+00 -2.2639277984E+00 -2.5915458783E+00  4.5829886329E+00  1.3957000000E-01  0.0000000000E+00  9.0000000000E+00
 111 2 83 0 0 0 -3.1060884561E-01 -1.4408363529E-01 -3.9103095327E-01  5.3699418595E-01  1.3498000000E-01  2.3299716781E-05  9.0000000000E+00
 211 1 84 0 0 0 -7.1070137300E-01 -1.3799115469E+00 -9.3317503156E-01  1.8164657287E+00  1.3957000000E-01  0.0000000000E+00  9.0000000000E+00
 111 2 84 0 0 0 -6.8415215668E-01 -5.0740687452E-01 -1.0220633750E+00  1.3372954247E+00  1.3498000000E-01  2.3804667691E-05  9.0000000000E+00
 323 2 86 0 0 0  1.4281616915E-02 -1.2117786003E+00 -2.4752451288E+00  2.9294128762E+00  9.9298036790E-01  0.0000000000E+00  9.0000000000E+00
 -211 1 86 0 0 0 -1.1282969283E-01  2.4894553964E-02 -1.7925114815E-01  2.5487455231E-01  1.3957000000E-01  0.0000000000E+00  9.0000000000E+00
 211 1 87 0 0 0  7.3812493085E-01 -3.2554889156E-01 -2.3297875689E+00  2.4694534609E+00  1.3957000000E-01  0.0000000000E+00  9.0000000000E+00
 111 2 87 0 0 0  6.4338960845E-01 -1.1314851735E+00 -2.8192782063E+00  3.1081760070E+00  1.3498000000E-01  6.5135709807E-05  9.0000000000E+00
 211 1 89 0 0 0  2.4088465525E-01  4.9472049095E-02 -1.6811842827E+00  1.7047971369E+00  1.3957000000E-01  0.0000000000E+00  9.0000000000E+00
 111 2 89 0 0 0 -8.2479194408E-02  3.7556242401E-02 -5.3758829835E-02  1.7123930927E-01  1.3498000000E-01  8.9950587703E-07  9.0000000000E+00
 221 2 92 0 0 0  1.6691302617E+00 -1.8856077105E-02  7.6326023130E-01  1.9153639511E+00  5.4745000000E-01  0.0000000000E+00  9.0000000000E+00
 211 1 92 0 0 0  1.2049407774E-01  1.9593712622E-01  1.6940236939E-02  2.6958660340E-01  1.3957000000E-01  0.0000000000E+00  9.0000000000E+00
 221 2 93 0 0 0  6.3636544641E-02  4.6166095947E-01  1.1784016901E+00  1.3804030198E+00  5.4745000000E-01  0.0000000000E+00  9.0000000000E+00
 -211 1 93 0 0 0  5.4287959342E-01  9.4223812336E-02  5.8695257194E-01  8.1706149485E-01  1.3957000000E-01  0.0000000000E+00  9.0000000000E+00
 310 2 94 0 0 0  2.8521982141E-01  4.8525313233E-02  9.5812857003E-01  1.1177615301E+00  4.9767000000E-01  7.0127002307E+00  9.0000000000E+00
 313 2 95 0 0 0 -6.2763025932E-01  9.7402029506E-01  1.7376580128E+00  2.2426430544E+00  8.1691934862E-01  0.0000000000E+00  9.0000000000E+00
 211 1 95 0 0 0 -8.6845138721E-01  6.4286319964E-01  2.1332042449E+00  2.3953123055E+00  1.3957000000E-01  0.0000000000E+00  9.0000000000E+00
 -211 1 96 0 0 0 -5.8258524423E-01  1.3440503321E-01  1.2584794577E+00  1.4002573371E+00  1.3957000000E-01  0.0000000000E+00  9.0000000000E+00
 211 1 96 0 0 0 -7.5202403723E-01  3.1674853335E-01  9.7342307523E-01  1.2778505602E+00  1.3957000000E-01  0.0000000000E+00  9.0000000000E+00
 111 2 96 0 0 0 -4.4290408723E-01  3.2005408149E-01  7.2539251080E-01  9.1815714379E-01  1.3498000000E-01  5.8107518909E-05  9.0000000000E+00
 111 2 96 0 0 0 -2.3877334452E-01  6.3366842035E-01  1.3153310810E+00  1.4855516921E+00  1.3498000000E-01  3.6160457841E-05  9.0000000000E+00
 10413 2 98 0 0 0  7.8529675914E+00  2.2648133509E+00  2.2259006463E+01  2.3838928477E+01  2.4561479394E+00  0.0000000000E+00  9.0000000000E+00
 -411 2 98 0 0 0  9.8331627206E+00  3.1998601566E+00  2.8267996197E+01  3.0157985437E+01  1.8693000000E+00  1.5321392587E-01  9.0000000000E+00
 -311 2 98 0 0 0  2.7056398409E+00  1.4855562369E+00  9.0990009255E+00  9.6211671616E+00  4.9767000000E-01  0.0000000000E+00  9.0000000000E+00
 211 1 100 0 0 0  1.7019135143E+00  5.9693117900E-01  4.3265858142E+00  4.6895267389E+00  1.3957000000E-01  0.0000000000E+00  9.0000000000E+00
 -211 1 100 0 0 0  5.9852264804E-01  3.0275048228E-01  2.0872772341E+00  2.1968371018E+00  1.3957000000E-01  0.0000000000E+00  9.0000000000E+00
 111 2 100 0 0 0  1.7372231545E+00  7.3848382841E-01  3.7747703055E+00  4.2226073832E+00  1.3498000000E-01  8.9453439536E-06  9.0000000000E+00
 211 1 104 0 0 0  1.8655446366E-01  7.5736180211E-02 -1.4309106472E-01  2.8371354323E-01  1.3957000000E-01  0.0000000000E+00  9.0000000000E+00
 -211 1 104 0 0 0  9.8490018579E-02 -3.1476231124E-02 -1.1105918423E+00  1.1240929952E+00  1.3957000000E-01  0.0000000000E+00  9.0000000000E+00
 111 2 104 0 0 0  2.4558429118E-01 -8.2372440748E-02 -4.6491532120E-01  5.4905620783E-01  1.3498000000E-01  3.7347139280E-06  9.0000000000E+00
 22 1 105 0 0 0  1.5102426169E-02 -5.2358117376E-04 -5.0054883193E-02  5.2286219455E-02  2.5505319122E-09  0.0000000000E+00  9.0000000000E+00
 22 1 105 0 0 0  1.8479875194E-01 -5.7174006354E-01 -8.0849175938E-01  1.0073213013E+00  1.4901161194E-08  0.0000000000E+00  9.0000000000E+00
 211 1 106 0 0 0  9.3664674000E-01 -1.4849716416E-01 -3.2721396020E+00  3.4096533377E+00  1.3957000000E-01  0.0000000000E+00  9.0000000000E+00
 111 2 106 0 0 0  2.8788524283E-01 -2.6436917958E-01 -7.6658647257E-01  8.7100137571E-01  1.3498000000E-01  6.1184191505E-06  9.0000000000E+00
 22 1 107 0 0 0 -1.7178228246E-01 -5.8535953156E-02 -8.7242978080E-01  8.9110567993E-01  0.0000000000E+00  0.0000000000E+00  9.0000000000E+00
 22 1 107 0 0 0 -2.3598155124E-03 -7.6777347955E-02 -3.3348187559E-01  3.4221410146E-01  9.1250603750E-09  0.0000000000E+00  9.0000000000E+00
 22 1 109 0 0 0  6.5021646346E-02 -1.2352055923E-01 -2.8519198550E-01  3.1752104126E-01  6.4523920699E-09  0.0000000000E+00  9.0000000000E+00
 22 1 109 0 0 0 -4.0213482424E-02 -1.7329818156E-01 -2.0110781882E-01  2.6850277222E-01  1.0536712128E-08  0.0000000000E+00  9.0000000000E+00
 22 1 110 0 0 0  1.1259905236E+00 -8.2147244095E-01 -4.9029297680E+00  5.0971945166E+00 -5.9604644775E-08  0.0000000000E+00  9.0000000000E+00
 22 1 110 0 0 0  7.8211770769E-01 -4.3744487465E-01 -3.1157397010E+00  3.2420518212E+00 -5.9604644775E-08  0.0000000000E+00  9.0000000000E+00
 22 1 111 0 0 0  3.6025964758E-03 -6.1128161184E-02 -3.0032671672E-01  3.0650573823E-01  3.7252902985E-09  0.0000000000E+00  9.0000000000E+00
 22 1 111 0 0 0 -1.0933609070E-01 -4.2428173295E-02 -1.6199929752E+00  1.6242326712E+00 -4.7121609154E-08  0.0000000000E+00  9.0000000000E+00
 22 1 113 0 0 0  2.8781778646E-01 -1.4358651563E-01 -9.4151291927E-01  9.9493856234E-01 -2.9802322388E-08  0.0000000000E+00  9.0000000000E+00
 22 1 113 0 0 0  5.0683461831E-02 -2.6867447652E-02 -4.4758853883E-01  4.5124956857E-01 -1.1780402288E-08  0.0000000000E+00  9.0000000000E+00
 22 1 116 0 0 0 -4.5111878064E-02  4.7788794055E-02 -2.1633289336E-01  2.2609460659E-01  2.6341780319E-09  0.0000000000E+00  9.0000000000E+00
 22 1 116 0 0 0  6.0096123911E-02 -3.6341073740E-02 -1.9906616098E-01  2.1109134089E-01 -2.6341780319E-09  0.0000000000E+00  9.0000000000E+00
 22 1 118 0 0 0  9.2861444685E-01 -1.4127409484E-01 -1.3441051104E+00  1.6397870924E+00 -2.9802322388E-08  0.0000000000E+00  9.0000000000E+00
 22 1 118 0 0 0  9.2570295852E-01 -5.7641831562E-02 -1.1507001819E+00  1.4779578670E+00  0.0000000000E+00  0.0000000000E+00  9.0000000000E+00
 -321 1 121 0 0 0  8.1505653707E-01  6.2348293790E-01 -7.7794451843E-01  1.3790891074E+00  4.9360000000E-01  0.0000000000E+00  9.0000000000E+00
 211 1 121 0 0 0  1.4278586203E+00  5.7034129967E-01 -1.8156638771E+00  2.3833137723E+00  1.3957000000E-01  0.0000000000E+00  9.0000000000E+00
 22 1 122 0 0 0  1.7854500176E-02 -6.7472965350E-02 -4.8418965483E-02  8.4945750030E-02  3.2261960349E-09  0.0000000000E+00  9.0000000000E+00
 22 1 122 0 0 0 -2.6042053245E-02  5.9749982012E-02 -3.2483634619E-02  7.2824689534E-02  3.0888475388E-09  0.0000000000E+00  9.0000000000E+00
 130 1 125 0 0 0  2.3090106389E+00  1.1772840018E+00 -7.2170505273E-04  2.6391672363E+00  4.9767000000E-01  0.0000000000E+00  9.0000000000E+00
 -211 1 126 0 0 0  6.1227991276E-01  3.8439272635E-02 -1.9798295611E-02  6.2947281646E-01  1.3957000000E-01  0.0000000000E+00  9.0000000000E+00
 111 2 126 0 0 0 -1.3438940931E-03 -2.3037048380E-02 -2.0369727155E-02  1.3844507154E-01  1.3498000000E-01  9.4744097341E-06  9.0000000000E+00
 22 1 128 0 0 0  4.5305533123E-01 -2.6730601378E-02 -3.3504385406E-01  5.6411704668E-01  0.0000000000E+00  0.0000000000E+00  9.0000000000E+00
 22 1 128 0 0 0  1.8004016071E-01 -6.5539276310E-02 -6.4524023320E-02  2.0217122890E-01  5.2683560639E-09  0.0000000000E+00  9.0000000000E+00
 12 1 129 0 0 0  8.8849294751E+00  3.6717734412E+00 -3.9003344103E+00  1.0374801227E+01 -2.3841857910E-07  0.0000000000E+00  9.0000000000E+00
 -11 1 129 0 0 0  5.5940088261E-01  1.1929135140E-01 -2.1629924035E-01  6.1151074844E-01  5.0999999977E-04  0.0000000000E+00  9.0000000000E+00
 -413 2 129 0 0 0  1.3546125414E+01  9.6904258106E+00 -2.3271867607E+00  1.6936875873E+01  2.0100000000E+00  0.0000000000E+00  9.0000000000E+00
 22 1 132 0 0 0 -1.7511944115E+01  3.4220720783E+00 -5.5761888165E+00  1.8694187484E+01  2.3841857910E-07  0.0000000000E+00  9.0000000000E+00
 22 1 132 0 0 0 -4.5703961244E+00  8.5588688464E-01 -1.3920364701E+00  4.8537437744E+00  8.4293697022E-08  0.0000000000E+00  9.0000000000E+00
 22 1 134 0 0 0 -5.5602296666E-02 -5.9668830150E-04 -5.2405803379E-03  5.5851903403E-02  1.6130980175E-09  0.0000000000E+00  9.0000000000E+00
 22 1 134 0 0 0 -1.0449711250E+00  4.0785541307E-01 -5.5383295822E-01  1.2510162412E+00  1.4901161194E-08  0.0000000000E+00  9.0000000000E+00
 -211 1 135 0 0 0 -5.2056194851E-01  1.1595653464E-01 -8.6802682460E-01  1.0282903351E+00  1.3957000000E-01  0.0000000000E+00  9.0000000000E+00
 111 2 135 0 0 0 -5.1926790797E-01  4.8276436016E-01 -2.5590657685E-01  7.6577305004E-01  1.3498000000E-01  2.4332521191E-06  9.0000000000E+00
 22 1 136 0 0 0 -1.2138325181E+00  4.4295454001E-01 -4.0710731760E-01  1.3547451696E+00  1.4901161194E-08  0.0000000000E+00  9.0000000000E+00
 22 1 136 0 0 0 -3.5658686891E-01  5.4990122280E-02 -1.2160678797E-01  3.8074442807E-01  9.1250603750E-09  0.0000000000E+00  9.0000000000E+00
 22 1 139 0 0 0 -1.4760473497E-02 -7.7522079430E-02  1.9531762993E-02  8.1295966337E-02  2.0825005858E-09  0.0000000000E+00  9.0000000000E+00
 22 1 139 0 0 0 -1.0347521116E-01  1.8500629697E-02 -2.3162860315E-02  1.0763786844E-01  2.2812650937E-09  0.0000000000E+00  9.0000000000E+00
 211 1 140 0 0 0 -8.3077501582E-01  4.5749098969E-01  1.2738223127E-01  9.6705281671E-01  1.3957000000E-01  0.0000000000E+00  9.0000000000E+00
 111 2 140 0 0 0 -7.3522871076E-01  9.2350763250E-02 -4.8569071181E-01  8.9621704321E-01  1.3498000000E-01  2.7236569205E-05  9.0000000000E+00
 22 1 141 0 0 0 -6.4448700147E-01  2.2292802837E-01 -3.4533886345E-01  7.6440783062E-01  1.0536712128E-08  0.0000000000E+00  9.0000000000E+00
 22 1 141 0 0 0 -9.9643560185E-01  5.0610889973E-01 -6.5764135697E-01  1.2967352395E+00  1.4901161194E-08  0.0000000000E+00  9.0000000000E+00
 22 1 143 0 0 0 -1.4212095353E-01  4.7289546251E-02 -1.1799958353E-01  1.9067922889E-01  3.7252902985E-09  0.0000000000E+00  9.0000000000E+00
 22 1 143 0 0 0 -1.3112336492E-01 -2.5824990808E-02  8.3971468620E-03  1.3390585892E-01  0.0000000000E+00  0.0000000000E+00  9.0000000000E+00
 22 1 145 0 0 0 -2.8739397905E-03 -6.5518863341E-01  9.5774261918E-02  6.6215792234E-01  7.4505805969E-09  0.0000000000E+00  9.0000000000E+00
 22 1 145 0 0 0  1.5282809731E-02 -5.8709862651E-01 -4.0783448393E-02  5.8871185752E-01  1.0536712128E-08  0.0000000000E+00  9.0000000000E+00
 22 1 147 0 0 0 -6.7376263135E-02 -6.5299635481E-01 -1.9659670917E-01  6.8526933850E-01  1.0536712128E-08  0.0000000000E+00  9.0000000000E+00
 22 1 147 0 0 0 -2.7208802241E-01 -1.2390900415E+00 -2.5554949808E-01  1.2940948840E+00 -1.4901161194E-08  0.0000000000E+00  9.0000000000E+00
 323 2 148 0 0 0 -2.4430444887E+00 -2.2743307910E+00 -1.8159829721E+00  3.8968727103E+00  8.6416193226E-01  0.0000000000E+00  9.0000000000E+00
 -211 1 148 0 0 0 -3.7266740012E+00 -2.0592914886E+00 -3.5206521348E+00  5.5265949540E+00  1.3957000000E-01  0.0000000000E+00  9.0000000000E+00
 22 1 149 0 0 0 -2.9057992014E-01 -2.7867690192E-01 -2.8679653806E-01  4.9431746874E-01 -9.1250603750E-09  0.0000000000E+00  9.0000000000E+00
 22 1 149 0 0 0 -6.5967907144E-02  2.5066961228E-03 -7.1255767752E-02  9.7136155660E-02 -2.6341780319E-09  0.0000000000E+00  9.0000000000E+00
 22 1 152 0 0 0 -1.1893726947E-01 -6.6208443880E-02 -1.6288362042E-01  2.1227507134E-01 -6.4523920699E-09  0.0000000000E+00  9.0000000000E+00
 22 1 152 0 0 0 -1.0164429651E+00 -8.3097428869E-01 -1.0777838186E+00  1.6986148856E+00 -2.9802322388E-08  0.0000000000E+00  9.0000000000E+00
 22 1 154 0 0 0 -5.5429725699E-02  2.6061190974E-02 -6.0644243591E-02  8.6193761067E-02  2.0825005858E-09  0.0000000000E+00  9.0000000000E+00
 22 1 154 0 0 0 -2.5517911991E-01 -1.7014482626E-01 -3.3038670967E-01  4.5080042488E-01  5.2683560639E-09  0.0000000000E+00  9.0000000000E+00
 22 1 156 0 0 0 -2.7021487303E-01 -2.6469246822E-01 -5.1736992898E-01  6.4089767027E-01 -7.4505805969E-09  0.0000000000E+00  9.0000000000E+00
 22 1 156 0 0 0 -4.1393728365E-01 -2.4271440630E-01 -5.0469344607E-01  6.9639775439E-01 -1.0536712128E-08  0.0000000000E+00  9.0000000000E+00
 311 2 157 0 0 0  1.6008521686E-01 -4.7174124641E-01 -6.8782091287E-01  9.8434755920E-01  4.9767000000E-01  0.0000000000E+00  9.0000000000E+00
 211 1 157 0 0 0 -1.4580359995E-01 -7.4003735388E-01 -1.7874242159E+00  1.9450653170E+00  1.3957000000E-01  0.0000000000E+00  9.0000000000E+00
 22 1 160 0 0 0  6.4605457767E-01 -1.1333902330E+00 -2.8051833410E+00  3.0937054666E+00  0.0000000000E+00  0.0000000000E+00  9.0000000000E+00
 22 1 160 0 0 0 -2.6649692177E-03  1.9050595689E-03 -1.4094865242E-02  1.4470540387E-02  2.9404952518E-09  0.0000000000E+00  9.0000000000E+00
 22 1 162 0 0 0  3.0465962156E-02  3.8886175585E-02 -2.0572619904E-02  5.3512075193E-02 -1.7423449954E-09  0.0000000000E+00  9.0000000000E+00
 22 1 162 0 0 0 -1.1294515656E-01 -1.3299331842E-03 -3.3186209931E-02  1.1772723408E-01 -2.9451005721E-09  0.0000000000E+00  9.0000000000E+00
 22 1 163 0 0 0  8.4868934864E-01 -2.5668023517E-01  2.6029700039E-01  9.2407406739E-01  1.4901161194E-08  0.0000000000E+00  9.0000000000E+00
 22 1 163 0 0 0  8.2044091305E-01  2.3782415806E-01  5.0296323091E-01  9.9128988374E-01  2.1073424255E-08  0.0000000000E+00  9.0000000000E+00
 22 1 165 0 0 0  7.3251322013E-02  5.8651857915E-01  1.0146093688E+00  1.1742239868E+00 -3.3320009373E-08  0.0000000000E+00  9.0000000000E+00
 22 1 165 0 0 0 -9.6147773721E-03 -1.2485761968E-01  1.6379232124E-01  2.0617903297E-01 -1.0860994262E-08  0.0000000000E+00  9.0000000000E+00
 211 1 167 0 0 0  1.1998235892E-01 -1.6943527236E-01  2.9365940259E-01  3.8577157438E-01  1.3957000000E-01  0.0000000000E+00  9.0000000000E+00
 -211 1 167 0 0 0  1.6523746249E-01  2.1796058559E-01  6.6446916744E-01  7.3198995571E-01  1.3957000000E-01  0.0000000000E+00  9.0000000000E+00
 311 2 168 0 0 0 -4.2237808352E-01  4.7438393549E-01  7.1440399488E-01  1.0777253177E+00  4.9767000000E-01  0.0000000000E+00  9.0000000000E+00
 111 2 168 0 0 0 -2.0525217580E-01  4.9963635957E-01  1.0232540179E+00  1.1649177366E+00  1.3498000000E-01  1.4348445843E-05  9.0000000000E+00
 22 1 172 0 0 0 -2.9071686973E-01  1.3003333633E-01  4.3725932233E-01  5.4094425024E-01  7.4505805969E-09  0.0000000000E+00  9.0000000000E+00
 22 1 172 0 0 0 -1.5218721750E-01  1.9002074516E-01  2.8813318847E-01  3.7721289354E-01 -5.2683560639E-09  0.0000000000E+00  9.0000000000E+00
 22 1 173 0 0 0 -1.5138700447E-01  2.1676260204E-01  5.1750620311E-01  5.8113399575E-01 -1.9712383383E-08  0.0000000000E+00  9.0000000000E+00
 22 1 173 0 0 0 -8.7386340048E-02  4.1690581831E-01  7.9782487788E-01  9.0441769639E-01 -2.9802322388E-08  0.0000000000E+00  9.0000000000E+00
 413 2 174 0 0 0  6.1728834074E+00  1.4620369473E+00  1.7902368326E+01  1.9099134359E+01  2.0100000000E+00  0.0000000000E+00  9.0000000000E+00
 111 2 174 0 0 0  1.6800841839E+00  8.0277640363E-01  4.3566381374E+00  4.7397941178E+00  1.3498000000E-01  1.9582434742E-06  9.0000000000E+00
 311 2 175 0 0 0  2.6952321340E+00  1.1652680022E+00  8.1411061426E+00  8.6687606051E+00  4.9767000000E-01  0.0000000000E+00  9.0000000000E+00
 -211 1 175 0 0 0  9.5070022694E-01  3.0403962488E-01  2.3720731196E+00  2.5773012405E+00  1.3957000000E-01  0.0000000000E+00  9.0000000000E+00
 -211 1 175 0 0 0  2.8662771577E+00  7.4828137008E-01  7.5934701411E+00  8.1520389059E+00  1.3957000000E-01  0.0000000000E+00  9.0000000000E+00
 211 1 175 0 0 0  3.6532768532E-01  3.0209097677E-01  1.1792637948E+00  1.2786188480E+00  1.3957000000E-01  0.0000000000E+00  9.0000000000E+00
 111 2 175 0 0 0  2.9556255166E+00  6.8018018269E-01  8.9820829991E+00  9.4812658374E+00  1.3498000000E-01  2.5758456976E-05  9.0000000000E+00
 130 1 176 0 0 0  2.7056398409E+00  1.4855562369E+00  9.0990009255E+00  9.6211671616E+00  4.9767000000E-01  0.0000000000E+00  9.0000000000E+00
 22 1 179 0 0 0  1.4271912021E+00  6.1736929963E-01  2.9903889837E+00  3.3705260500E+00  4.2146848511E-08  0.0000000000E+00  9.0000000000E+00
 22 1 179 0 0 0  3.1003195246E-01  1.2111452878E-01  7.8438132174E-01  8.5208133328E-01  2.1073424255E-08  0.0000000000E+00  9.0000000000E+00
 22 1 182 0 0 0  2.2334449574E-01 -1.1607742710E-01 -4.0012676153E-01  4.7271361113E-01  9.1250603750E-09  0.0000000000E+00  9.0000000000E+00
 22 1 182 0 0 0  2.2239795436E-02  3.3704986349E-02 -6.4788559677E-02  7.6342596699E-02 -9.3132257462E-10  0.0000000000E+00  9.0000000000E+00
 22 1 186 0 0 0  2.0729376953E-01 -2.1175817862E-01 -4.3964822859E-01  5.3019128435E-01  1.4901161194E-08  0.0000000000E+00  9.0000000000E+00
 22 1 186 0 0 0  8.0591473301E-02 -5.2611000952E-02 -3.2693824399E-01  3.4081009136E-01  7.4505805969E-09  0.0000000000E+00  9.0000000000E+00
 22 1 207 0 0 0 -4.0068752970E-02  1.5265765054E-02  3.8938768444E-02  5.7920430205E-02 -2.7152485656E-09  0.0000000000E+00  9.0000000000E+00
 22 1 207 0 0 0  3.8724858877E-02 -3.8302813434E-02 -5.9308495598E-02  8.0524641335E-02 -2.9451005721E-09  0.0000000000E+00  9.0000000000E+00
 -421 2 212 0 0 0  1.2813619319E+01  9.1459725963E+00 -2.2085505847E+00  1.6005989838E+01  1.8645000000E+00  9.0125819936E-02  9.0000000000E+00
 -211 1 212 0 0 0  7.3250609570E-01  5.4445321425E-01 -1.1863617602E-01  9.3088603486E-01  1.3957000000E-01  0.0000000000E+00  9.0000000000E+00
 22 1 218 0 0 0 -1.0430360856E-01  8.0013466159E-02 -1.0469143915E-01  1.6805265531E-01 -3.2261960349E-09  0.0000000000E+00  9.0000000000E+00
 22 1 218 0 0 0 -4.1496429941E-01  4.0275089400E-01 -1.5121513770E-01  5.9772039473E-01  7.4505805969E-09  0.0000000000E+00  9.0000000000E+00
 22 1 224 0 0 0 -1.6241783959E-01  6.8389418592E-02 -1.5292620345E-01  2.3333043285E-01  0.0000000000E+00  0.0000000000E+00  9.0000000000E+00
 22 1 224 0 0 0 -5.7281087117E-01  2.3961344657E-02 -3.3276450837E-01  6.6288661036E-01 -7.4505805969E-09  0.0000000000E+00  9.0000000000E+00
 311 2 233 0 0 0 -2.1457155242E+00 -2.0896468123E+00 -1.4253164152E+00  3.3540902229E+00  4.9767000000E-01  0.0000000000E+00  9.0000000000E+00
 211 1 233 0 0 0 -2.9732896447E-01 -1.8468397868E-01 -3.9066655690E-01  5.4278248745E-01  1.3957000000E-01  0.0000000000E+00  9.0000000000E+00
 130 1 243 0 0 0  1.6008521686E-01 -4.7174124641E-01 -6.8782091287E-01  9.8434755920E-01  4.9767000000E-01  0.0000000000E+00  9.0000000000E+00
 130 1 255 0 0 0 -4.2237808352E-01  4.7438393549E-01  7.1440399488E-01  1.0777253177E+00  4.9767000000E-01  0.0000000000E+00  9.0000000000E+00
 22 1 256 0 0 0 -2.1238432377E-01  3.6800713907E-01  7.8718537660E-01  8.9453740700E-01  1.0536712128E-08  0.0000000000E+00  9.0000000000E+00
 22 1 256 0 0 0  7.1321479706E-03  1.3162922050E-01  2.3606864134E-01  2.7038032962E-01  7.4505805969E-09  0.0000000000E+00  9.0000000000E+00
 411 2 261 0 0 0  5.6702542703E+00  1.3386859536E+00  1.6549089429E+01  1.7643993510E+01  1.8693000000E+00  3.9129454839E-01  9.0000000000E+00
 111 2 261 0 0 0  5.0262913713E-01  1.2335099372E-01  1.3532788966E+00  1.4551408487E+00  1.3498000000E-01  2.3410172048E-05  9.0000000000E+00
 22 1 262 0 0 0  1.4476317188E+00  7.3830507163E-01  3.8339977441E+00  4.1641650632E+00  5.9604644775E-08  0.0000000000E+00  9.0000000000E+00
 11 1 262 0 0 0  1.5257058079E-01  4.1380701017E-02  3.4178820609E-01  3.7657613103E-01  5.1000000006E-04  0.0000000000E+00  9.0000000000E+00
 -11 1 262 0 0 0  7.9881884383E-02  2.3090630982E-02  1.8085218719E-01  1.9905292363E-01  5.1000000002E-04  0.0000000000E+00  9.0000000000E+00
 130 1 263 0 0 0  2.6952321340E+00  1.1652680022E+00  8.1411061426E+00  8.6687606051E+00  4.9767000000E-01  0.0000000000E+00  9.0000000000E+00
 22 1 267 0 0 0  1.2965080086E+00  2.3049330990E-01  3.9273549313E+00  4.1422429840E+00  5.9604644775E-08  0.0000000000E+00  9.0000000000E+00
 22 1 267 0 0 0  1.6591175080E+00  4.4968687279E-01  5.0547280679E+00  5.3390228534E+00  8.4293697022E-08  0.0000000000E+00  9.0000000000E+00
 311 2 277 0 0 0  4.3203723402E+00  2.8778316550E+00 -1.0700422017E+00  5.3235512522E+00  4.9767000000E-01  0.0000000000E+00  9.0000000000E+00
 -211 1 277 0 0 0  2.0491295847E+00  2.0582473032E+00 -3.7454894723E-01  2.9317368086E+00  1.3957000000E-01  0.0000000000E+00  9.0000000000E+00
 211 1 277 0 0 0  1.8845824442E+00  1.1598406912E+00 -2.7008661248E-01  2.2336758899E+00  1.3957000000E-01  0.0000000000E+00  9.0000000000E+00
 111 2 277 0 0 0  2.2988727095E+00  1.6374955680E+00 -2.7030706167E-01  2.8385723485E+00  1.3498000000E-01  4.1948865519E-05  9.0000000000E+00
 111 2 277 0 0 0  2.2606622399E+00  1.4125573789E+00 -2.2356576160E-01  2.6784535392E+00  1.3498000000E-01  1.5999800229E-05  9.0000000000E+00
 310 2 283 0 0 0 -2.1457155242E+00 -2.0896468123E+00 -1.4253164152E+00  3.3540902229E+00  4.9767000000E-01  1.6793597821E+01  9.0000000000E+00
 -11 1 289 0 0 0  7.0043785981E-01  3.1980956732E-01  1.3672238927E+00  1.5691375936E+00  5.1000000281E-04  0.0000000000E+00  9.0000000000E+00
 12 1 289 0 0 0  1.4295444737E+00 -9.7705927959E-03  6.0007435504E+00  6.1686802498E+00  1.4600096600E-07  0.0000000000E+00  9.0000000000E+00
 -311 2 289 0 0 0  3.5402719368E+00  1.0286469790E+00  9.1811219861E+00  9.9061756671E+00  4.9767000000E-01  0.0000000000E+00  9.0000000000E+00
 22 1 290 0 0 0  2.8595561788E-01  4.2047098151E-02  9.1427003789E-01  9.5886822663E-01  2.1073424255E-08  0.0000000000E+00  9.0000000000E+00
 22 1 290 0 0 0  2.1667351925E-01  8.1303895570E-02  4.3900885870E-01  4.9627262205E-01  1.1780402288E-08  0.0000000000E+00  9.0000000000E+00
 130 1 297 0 0 0  4.3203723402E+00  2.8778316550E+00 -1.0700422017E+00  5.3235512522E+00  4.9767000000E-01  0.0000000000E+00  9.0000000000E+00
 22 1 300 0 0 0  2.2323953587E+00  1.5773160506E+00 -2.8295755832E-01  2.7480138174E+00 -5.9604644775E-08  0.0000000000E+00  9.0000000000E+00
 22 1 300 0 0 0  6.6477350895E-02  6.0179517453E-02  1.2650496644E-02  9.0558531173E-02 -2.9451005721E-09  0.0000000000E+00  9.0000000000E+00
 22 1 301 0 0 0  1.5444403754E+00  9.5946488304E-01 -2.1529479709E-01  1.8309070934E+00 -2.9802322388E-08  0.0000000000E+00  9.0000000000E+00
 22 1 301 0 0 0  7.1622186447E-01  4.5309249583E-01 -8.2709645105E-03  8.4754644579E-01 -2.1073424255E-08  0.0000000000E+00  9.0000000000E+00
 111 2 302 0 0 0 -1.0559289482E+00 -8.4121340485E-01 -8.1623849450E-01  1.5833795554E+00  1.3498000000E-01  4.0165130255E-05  9.0000000000E+00
 111 2 302 0 0 0 -1.0897865759E+00 -1.2484334075E+00 -6.0907792068E-01  1.7707106675E+00  1.3498000000E-01  1.5927014542E-05  9.0000000000E+00
 310 2 305 0 0 0  3.5402719368E+00  1.0286469790E+00  9.1811219861E+00  9.9061756671E+00  4.9767000000E-01  1.1406662570E+01  9.0000000000E+00
 22 1 313 0 0 0 -5.4344258210E-01 -3.4879859255E-01 -3.7152639118E-01  7.4499809231E-01  1.4901161194E-08  0.0000000000E+00  9.0000000000E+00
 22 1 313 0 0 0 -5.1248636615E-01 -4.9241481230E-01 -4.4471210332E-01  8.3838146312E-01  0.0000000000E+00  0.0000000000E+00  9.0000000000E+00
 22 1 314 0 0 0 -9.7278653184E-01 -1.1359822327E+00 -5.0788748125E-01  1.5794679367E+00  2.9802322388E-08  0.0000000000E+00  9.0000000000E+00
 22 1 314 0 0 0 -1.1700004411E-01 -1.1245117481E-01 -1.0119043943E-01  1.9124273076E-01  5.2683560639E-09  0.0000000000E+00  9.0000000000E+00
 -211 1 315 0 0 0  5.1003946141E-01  1.9059206593E-01  1.6832256470E+00  1.7745968419E+00  1.3957000000E-01  0.0000000000E+00  9.0000000000E+00
 211 1 315 0 0 0  3.0302324754E+00  8.3805491312E-01  7.4978963391E+00  8.1315788251E+00  1.3957000000E-01  0.0000000000E+00  9.0000000000E+00
<weights>1.3060184539E+20</weights>
</event>
</LesHouchesEvents>
